# vtk DataFile Version 2.0
MATLAB generated vtk file, WMC
ASCII
DATASET UNSTRUCTURED_GRID
POINTS 1026 double
0.000000 0.000000 0.000000 
0.097656 0.000000 0.000000 
0.000000 0.097656 0.000000 
0.097656 0.097656 0.000000 
0.000000 0.195312 0.000000 
0.097656 0.195312 0.000000 
0.000000 0.292969 0.000000 
0.097656 0.292969 0.000000 
0.000000 0.390625 0.000000 
0.097656 0.390625 0.000000 
0.000000 0.488281 0.000000 
0.097656 0.488281 0.000000 
0.000000 0.585938 0.000000 
0.097656 0.585938 0.000000 
0.000000 0.683594 0.000000 
0.097656 0.683594 0.000000 
0.000000 0.781250 0.000000 
0.097656 0.781250 0.000000 
0.000000 0.878906 0.000000 
0.097656 0.878906 0.000000 
0.000000 0.976562 0.000000 
0.097656 0.976562 0.000000 
0.000000 1.074219 0.000000 
0.097656 1.074219 0.000000 
0.000000 1.171875 0.000000 
0.097656 1.171875 0.000000 
0.000000 1.269531 0.000000 
0.097656 1.269531 0.000000 
0.000000 1.367188 0.000000 
0.097656 1.367188 0.000000 
0.000000 1.464844 0.000000 
0.097656 1.464844 0.000000 
0.000000 1.562500 0.000000 
0.097656 1.562500 0.000000 
0.000000 1.660156 0.000000 
0.097656 1.660156 0.000000 
0.000000 1.757812 0.000000 
0.097656 1.757812 0.000000 
0.000000 1.855469 0.000000 
0.097656 1.855469 0.000000 
0.000000 1.953125 0.000000 
0.097656 1.953125 0.000000 
0.000000 2.050781 0.000000 
0.097656 2.050781 0.000000 
0.000000 2.148438 0.000000 
0.097656 2.148438 0.000000 
0.000000 2.246094 0.000000 
0.097656 2.246094 0.000000 
0.000000 2.343750 0.000000 
0.097656 2.343750 0.000000 
0.000000 2.441406 0.000000 
0.097656 2.441406 0.000000 
0.000000 2.539062 0.000000 
0.097656 2.539062 0.000000 
0.000000 2.636719 0.000000 
0.097656 2.636719 0.000000 
0.000000 2.734375 0.000000 
0.097656 2.734375 0.000000 
0.000000 2.832031 0.000000 
0.097656 2.832031 0.000000 
0.000000 2.929688 0.000000 
0.097656 2.929688 0.000000 
0.000000 3.027344 0.000000 
0.097656 3.027344 0.000000 
0.000000 3.125000 0.000000 
0.097656 3.125000 0.000000 
0.000000 3.222656 0.000000 
0.097656 3.222656 0.000000 
0.000000 3.320312 0.000000 
0.097656 3.320312 0.000000 
0.000000 3.417969 0.000000 
0.097656 3.417969 0.000000 
0.000000 3.515625 0.000000 
0.097656 3.515625 0.000000 
0.000000 3.613281 0.000000 
0.097656 3.613281 0.000000 
0.000000 3.710938 0.000000 
0.097656 3.710938 0.000000 
0.000000 3.808594 0.000000 
0.097656 3.808594 0.000000 
0.000000 3.906250 0.000000 
0.097656 3.906250 0.000000 
0.000000 4.003906 0.000000 
0.097656 4.003906 0.000000 
0.000000 4.101562 0.000000 
0.097656 4.101562 0.000000 
0.000000 4.199219 0.000000 
0.097656 4.199219 0.000000 
0.000000 4.296875 0.000000 
0.097656 4.296875 0.000000 
0.000000 4.394531 0.000000 
0.097656 4.394531 0.000000 
0.000000 4.492188 0.000000 
0.097656 4.492188 0.000000 
0.000000 4.589844 0.000000 
0.097656 4.589844 0.000000 
0.000000 4.687500 0.000000 
0.097656 4.687500 0.000000 
0.000000 4.785156 0.000000 
0.097656 4.785156 0.000000 
0.000000 4.882812 0.000000 
0.097656 4.882812 0.000000 
0.000000 4.980469 0.000000 
0.097656 4.980469 0.000000 
0.000000 5.078125 0.000000 
0.097656 5.078125 0.000000 
0.000000 5.175781 0.000000 
0.097656 5.175781 0.000000 
0.000000 5.273438 0.000000 
0.097656 5.273438 0.000000 
0.000000 5.371094 0.000000 
0.097656 5.371094 0.000000 
0.000000 5.468750 0.000000 
0.097656 5.468750 0.000000 
0.000000 5.566406 0.000000 
0.097656 5.566406 0.000000 
0.000000 5.664062 0.000000 
0.097656 5.664062 0.000000 
0.000000 5.761719 0.000000 
0.097656 5.761719 0.000000 
0.000000 5.859375 0.000000 
0.097656 5.859375 0.000000 
0.000000 5.957031 0.000000 
0.097656 5.957031 0.000000 
0.000000 6.054688 0.000000 
0.097656 6.054688 0.000000 
0.000000 6.152344 0.000000 
0.097656 6.152344 0.000000 
0.000000 6.250000 0.000000 
0.097656 6.250000 0.000000 
0.000000 6.347656 0.000000 
0.097656 6.347656 0.000000 
0.000000 6.445312 0.000000 
0.097656 6.445312 0.000000 
0.000000 6.542969 0.000000 
0.097656 6.542969 0.000000 
0.000000 6.640625 0.000000 
0.097656 6.640625 0.000000 
0.000000 6.738281 0.000000 
0.097656 6.738281 0.000000 
0.000000 6.835938 0.000000 
0.097656 6.835938 0.000000 
0.000000 6.933594 0.000000 
0.097656 6.933594 0.000000 
0.000000 7.031250 0.000000 
0.097656 7.031250 0.000000 
0.000000 7.128906 0.000000 
0.097656 7.128906 0.000000 
0.000000 7.226562 0.000000 
0.097656 7.226562 0.000000 
0.000000 7.324219 0.000000 
0.097656 7.324219 0.000000 
0.000000 7.421875 0.000000 
0.097656 7.421875 0.000000 
0.000000 7.519531 0.000000 
0.097656 7.519531 0.000000 
0.000000 7.617188 0.000000 
0.097656 7.617188 0.000000 
0.000000 7.714844 0.000000 
0.097656 7.714844 0.000000 
0.000000 7.812500 0.000000 
0.097656 7.812500 0.000000 
0.000000 7.910156 0.000000 
0.097656 7.910156 0.000000 
0.000000 8.007812 0.000000 
0.097656 8.007812 0.000000 
0.000000 8.105469 0.000000 
0.097656 8.105469 0.000000 
0.000000 8.203125 0.000000 
0.097656 8.203125 0.000000 
0.000000 8.300781 0.000000 
0.097656 8.300781 0.000000 
0.000000 8.398438 0.000000 
0.097656 8.398438 0.000000 
0.000000 8.496094 0.000000 
0.097656 8.496094 0.000000 
0.000000 8.593750 0.000000 
0.097656 8.593750 0.000000 
0.000000 8.691406 0.000000 
0.097656 8.691406 0.000000 
0.000000 8.789062 0.000000 
0.097656 8.789062 0.000000 
0.000000 8.886719 0.000000 
0.097656 8.886719 0.000000 
0.000000 8.984375 0.000000 
0.097656 8.984375 0.000000 
0.000000 9.082031 0.000000 
0.097656 9.082031 0.000000 
0.000000 9.179688 0.000000 
0.097656 9.179688 0.000000 
0.000000 9.277344 0.000000 
0.097656 9.277344 0.000000 
0.000000 9.375000 0.000000 
0.097656 9.375000 0.000000 
0.000000 9.472656 0.000000 
0.097656 9.472656 0.000000 
0.000000 9.570312 0.000000 
0.097656 9.570312 0.000000 
0.000000 9.667969 0.000000 
0.097656 9.667969 0.000000 
0.000000 9.765625 0.000000 
0.097656 9.765625 0.000000 
0.000000 9.863281 0.000000 
0.097656 9.863281 0.000000 
0.000000 9.960938 0.000000 
0.097656 9.960938 0.000000 
0.000000 10.058594 0.000000 
0.097656 10.058594 0.000000 
0.000000 10.156250 0.000000 
0.097656 10.156250 0.000000 
0.000000 10.253906 0.000000 
0.097656 10.253906 0.000000 
0.000000 10.351562 0.000000 
0.097656 10.351562 0.000000 
0.000000 10.449219 0.000000 
0.097656 10.449219 0.000000 
0.000000 10.546875 0.000000 
0.097656 10.546875 0.000000 
0.000000 10.644531 0.000000 
0.097656 10.644531 0.000000 
0.000000 10.742188 0.000000 
0.097656 10.742188 0.000000 
0.000000 10.839844 0.000000 
0.097656 10.839844 0.000000 
0.000000 10.937500 0.000000 
0.097656 10.937500 0.000000 
0.000000 11.035156 0.000000 
0.097656 11.035156 0.000000 
0.000000 11.132812 0.000000 
0.097656 11.132812 0.000000 
0.000000 11.230469 0.000000 
0.097656 11.230469 0.000000 
0.000000 11.328125 0.000000 
0.097656 11.328125 0.000000 
0.000000 11.425781 0.000000 
0.097656 11.425781 0.000000 
0.000000 11.523438 0.000000 
0.097656 11.523438 0.000000 
0.000000 11.621094 0.000000 
0.097656 11.621094 0.000000 
0.000000 11.718750 0.000000 
0.097656 11.718750 0.000000 
0.000000 11.816406 0.000000 
0.097656 11.816406 0.000000 
0.000000 11.914062 0.000000 
0.097656 11.914062 0.000000 
0.000000 12.011719 0.000000 
0.097656 12.011719 0.000000 
0.000000 12.109375 0.000000 
0.097656 12.109375 0.000000 
0.000000 12.207031 0.000000 
0.097656 12.207031 0.000000 
0.000000 12.304688 0.000000 
0.097656 12.304688 0.000000 
0.000000 12.402344 0.000000 
0.097656 12.402344 0.000000 
0.000000 12.500000 0.000000 
0.097656 12.500000 0.000000 
0.000000 12.597656 0.000000 
0.097656 12.597656 0.000000 
0.000000 12.695312 0.000000 
0.097656 12.695312 0.000000 
0.000000 12.792969 0.000000 
0.097656 12.792969 0.000000 
0.000000 12.890625 0.000000 
0.097656 12.890625 0.000000 
0.000000 12.988281 0.000000 
0.097656 12.988281 0.000000 
0.000000 13.085938 0.000000 
0.097656 13.085938 0.000000 
0.000000 13.183594 0.000000 
0.097656 13.183594 0.000000 
0.000000 13.281250 0.000000 
0.097656 13.281250 0.000000 
0.000000 13.378906 0.000000 
0.097656 13.378906 0.000000 
0.000000 13.476562 0.000000 
0.097656 13.476562 0.000000 
0.000000 13.574219 0.000000 
0.097656 13.574219 0.000000 
0.000000 13.671875 0.000000 
0.097656 13.671875 0.000000 
0.000000 13.769531 0.000000 
0.097656 13.769531 0.000000 
0.000000 13.867188 0.000000 
0.097656 13.867188 0.000000 
0.000000 13.964844 0.000000 
0.097656 13.964844 0.000000 
0.000000 14.062500 0.000000 
0.097656 14.062500 0.000000 
0.000000 14.160156 0.000000 
0.097656 14.160156 0.000000 
0.000000 14.257812 0.000000 
0.097656 14.257812 0.000000 
0.000000 14.355469 0.000000 
0.097656 14.355469 0.000000 
0.000000 14.453125 0.000000 
0.097656 14.453125 0.000000 
0.000000 14.550781 0.000000 
0.097656 14.550781 0.000000 
0.000000 14.648438 0.000000 
0.097656 14.648438 0.000000 
0.000000 14.746094 0.000000 
0.097656 14.746094 0.000000 
0.000000 14.843750 0.000000 
0.097656 14.843750 0.000000 
0.000000 14.941406 0.000000 
0.097656 14.941406 0.000000 
0.000000 15.039062 0.000000 
0.097656 15.039062 0.000000 
0.000000 15.136719 0.000000 
0.097656 15.136719 0.000000 
0.000000 15.234375 0.000000 
0.097656 15.234375 0.000000 
0.000000 15.332031 0.000000 
0.097656 15.332031 0.000000 
0.000000 15.429688 0.000000 
0.097656 15.429688 0.000000 
0.000000 15.527344 0.000000 
0.097656 15.527344 0.000000 
0.000000 15.625000 0.000000 
0.097656 15.625000 0.000000 
0.000000 15.722656 0.000000 
0.097656 15.722656 0.000000 
0.000000 15.820312 0.000000 
0.097656 15.820312 0.000000 
0.000000 15.917969 0.000000 
0.097656 15.917969 0.000000 
0.000000 16.015625 0.000000 
0.097656 16.015625 0.000000 
0.000000 16.113281 0.000000 
0.097656 16.113281 0.000000 
0.000000 16.210938 0.000000 
0.097656 16.210938 0.000000 
0.000000 16.308594 0.000000 
0.097656 16.308594 0.000000 
0.000000 16.406250 0.000000 
0.097656 16.406250 0.000000 
0.000000 16.503906 0.000000 
0.097656 16.503906 0.000000 
0.000000 16.601562 0.000000 
0.097656 16.601562 0.000000 
0.000000 16.699219 0.000000 
0.097656 16.699219 0.000000 
0.000000 16.796875 0.000000 
0.097656 16.796875 0.000000 
0.000000 16.894531 0.000000 
0.097656 16.894531 0.000000 
[...]
POINT_DATA 1026
SCALARS u_x FLOAT 1
LOOKUP_TABLE default
0.000000
0.000000
0.000000
0.000000
0.000000
0.000000
0.000000
0.000000
0.000000
0.000000
0.000000
0.000000
0.000000
0.000000
0.000000
0.000000
0.000000
0.000000
0.000000
0.000000
0.000000
0.000000
0.000000
0.000000
0.000000
0.000000
0.000000
0.000000
0.000000
0.000000
0.000000
0.000000
0.000000
0.000000
0.000000
0.000000
0.000000
0.000000
0.000000
0.000000
0.000000
0.000000
0.000000
0.000000
0.000000
0.000000
0.000000
0.000000
0.000000
0.000000
0.000000
0.000000
0.000000
0.000000
0.000000
0.000000
0.000000
0.000000
0.000000
0.000000
0.000000
0.000000
0.000000
0.000000
0.000000
0.000000
0.000000
0.000000
0.000000
0.000000
0.000000
0.000000
0.000000
0.000000
0.000000
0.000000
0.000000
0.000000
0.000000
0.000000
0.000000
0.000000
0.000000
0.000000
0.000000
0.000000
0.000000
0.000000
0.000000
0.000000
0.000000
0.000000
0.000000
0.000000
0.000000
0.000000
0.000000
0.000000
0.000000
0.000000
0.000000
0.000000
0.000000
0.000000
0.000000
0.000000
0.000000
0.000000
0.000000
0.000000
0.000000
0.000000
0.000000
0.000000
0.000000
0.000000
0.000000
0.000000
0.000000
0.000000
0.000000
0.000000
0.000000
0.000000
0.000000
0.000000
0.000000
0.000000
0.000000
0.000000
0.000000
0.000000
0.000000
0.000000
0.000000
0.000000
0.000000
0.000000
0.000000
0.000000
0.000000
0.000000
0.000000
0.000000
0.000000
0.000000
0.000000
0.000000
0.000000
0.000000
0.000000
0.000000
0.000000
0.000000
0.000000
0.000000
0.000000
0.000000
0.000000
0.000000
0.000000
0.000000
0.000000
0.000000
0.000000
0.000000
0.000000
0.000000
0.000000
0.000000
0.000000
0.000000
0.000000
0.000000
0.000000
0.000000
0.000000
0.000000
0.000000
0.000000
0.000000
0.000000
0.000000
0.000000
0.000000
0.000000
0.000000
0.000000
0.000000
0.000000
0.000000
0.000000
0.000000
0.000000
0.000000
0.000000
0.000000
0.000000
0.000000
0.000000
0.000000
0.000000
0.000000
0.000000
0.000000
0.000000
0.000000
0.000000
0.000000
0.000000
0.000000
0.000000
0.000000
0.000000
0.000000
0.000000
0.000000
0.000000
0.000000
0.000000
0.000000
0.000000
0.000000
0.000000
0.000000
0.000000
0.000000
0.000000
0.000000
0.000000
0.000000
0.000000
0.000000
0.000000
0.000000
0.000000
0.000000
0.000000
0.000000
0.000000
0.000000
0.000000
0.000000
0.000000
0.000000
0.000000
0.000000
0.000000
0.000000
0.000000
0.000000
0.000000
0.000000
0.000000
0.000000
0.000000
0.000000
0.000000
0.000000
0.000000
0.000000
0.000000
0.000000
0.000000
0.000000
0.000000
0.000000
0.000000
0.000000
0.000000
0.000000
0.000000
0.000000
0.000000
0.000000
0.000000
0.000000
0.000000
0.000000
0.000000
0.000000
0.000000
0.000000
0.000000
0.000000
0.000000
0.000000
0.000000
0.000000
0.000000
0.000000
0.000000
0.000000
0.000000
0.000000
0.000000
0.000000
0.000000
0.000000
0.000000
0.000000
0.000000
0.000000
0.000000
0.000000
0.000000
0.000000
0.000000
0.000000
0.000000
0.000000
0.000000
0.000000
0.000000
0.000000
0.000000
0.000000
0.000000
0.000000
0.000000
0.000000
0.000000
0.000000
0.000000
0.000000
0.000000
0.000000
0.000000
0.000000
0.000000
0.000000
0.000000
0.000000
0.000000
0.000000
0.000000
0.000000
0.000000
0.000000
0.000000
0.000000
0.000000
0.000000
0.000000
0.000000
0.000000
0.000000
0.000000
0.000000
0.000000
0.000000
0.000000
0.000000
0.000000
0.000000
0.000000
0.000000
0.000000
0.000000
0.000000
0.000000
0.000000
0.000000
0.000000
0.000000
0.000000
0.000000
0.000000
0.000000
0.000000
0.000000
0.000000
0.000000
0.000000
0.000000
0.000000
0.000000
0.000000
0.000000
0.000000
0.000000
0.000000
0.000000
0.000000
0.000000
0.000000
0.000000
0.000000
0.000000
0.000000
0.000000
0.000000
0.000000
0.000000
0.000000
0.000000
0.000000
0.000000
0.000000
0.000000
0.000000
0.000000
0.000000
0.000000
0.000000
0.000000
0.000000
0.000000
0.000000
0.000000
0.000000
0.000000
0.000000
0.000000
0.000000
0.000000
0.000000
0.000000
0.000000
0.000000
0.000000
0.000000
0.000000
0.000000
0.000000
0.000000
0.000000
0.000000
0.000000
0.000000
0.000000
0.000000
0.000000
0.000000
0.000000
0.000000
0.000000
0.000000
0.000000
0.000000
0.000000
0.000000
0.000000
0.000000
0.000000
0.000000
0.000000
0.000000
0.000000
0.000000
0.000000
0.000000
0.000000
0.000000
0.000000
0.000000
0.000000
0.000000
0.000000
0.000000
0.000000
0.000000
0.000000
0.000000
0.000000
0.000000
0.000000
0.000000
0.000000
0.000000
0.000000
0.000000
0.000000
0.000000
0.000000
0.000000
0.000000
0.000000
0.000000
0.000000
0.000000
0.000000
0.000000
0.000000
0.000000
0.000000
0.000000
0.000000
0.000000
0.000000
0.000000
0.000000
0.000000
0.000000
0.000000
0.000000
0.000000
0.000000
0.000000
0.000000
0.000000
0.000000
0.000000
0.000000
0.000000
0.000000
0.000000
0.000000
0.000000
0.000000
0.000000
0.000000
0.000000
0.000000
0.000000
0.000000
0.000000
0.000000
0.000000
0.000000
0.000000
0.000000
0.000000
0.000000
0.000000
0.000000
0.000000
0.000000
0.000000
0.000000
0.000000
0.000000
0.000000
0.000000
0.000000
0.000000
0.000000
0.000000
0.000000
0.000000
0.000000
0.000000
0.000000
0.000000
0.000000
0.000000
0.000000
0.000000
0.000000
0.000000
0.000000
0.000000
0.000000
0.000000
0.000000
0.000000
0.000000
0.000000
0.000000
0.000000
0.000000
0.000000
0.000000
0.000000
0.000000
0.000000
0.000000
0.000000
0.000000
0.000000
0.000000
0.000000
0.000000
0.000000
0.000000
0.000000
0.000000
0.000000
0.000000
0.000000
0.000000
0.000000
0.000000
0.000000
0.000000
0.000000
0.000000
0.000000
0.000000
0.000000
0.000000
0.000000
0.000000
0.000000
0.000000
0.000000
0.000000
0.000000
0.000000
0.000000
0.000000
0.000000
0.000000
0.000000
0.000000
0.000000
0.000000
0.000000
0.000000
0.000000
0.000000
0.000000
0.000000
0.000000
0.000000
0.000000
0.000000
0.000000
0.000000
0.000000
0.000000
0.000000
0.000000
0.000000
0.000000
0.000000
0.000000
0.000000
0.000000
0.000000
0.000000
0.000000
0.000000
0.000000
0.000000
0.000000
0.000000
0.000000
0.000000
0.000000
0.000000
0.000000
0.000000
0.000000
0.000000
0.000000
0.000000
0.000000
0.000000
0.000000
0.000000
0.000000
0.000000
0.000000
0.000000
0.000000
0.000000
0.000000
0.000000
0.000000
0.000000
0.000000
0.000000
0.000000
0.000000
0.000000
0.000000
0.000000
0.000000
0.000000
0.000000
0.000000
0.000000
0.000000
0.000000
0.000000
0.000000
0.000000
0.000000
0.000000
0.000000
0.000000
0.000000
0.000000
0.000000
0.000000
0.000000
0.000000
0.000000
0.000000
0.000000
0.000000
0.000000
0.000000
0.000000
0.000000
0.000000
0.000000
0.000000
0.000000
0.000000
0.000000
0.000000
0.000000
0.000000
0.000000
0.000000
0.000000
0.000000
0.000000
0.000000
0.000000
0.000000
0.000000
0.000000
0.000000
0.000000
0.000000
0.000000
0.000000
0.000000
0.000000
0.000000
0.000000
0.000000
0.000000
0.000000
0.000000
0.000000
0.000000
0.000000
0.000000
0.000000
0.000000
0.000000
0.000000
0.000000
0.000000
0.000000
0.000000
0.000000
0.000000
0.000000
0.000000
0.000000
0.000000
0.000000
0.000000
0.000000
0.000000
0.000000
0.000000
0.000000
0.000000
0.000000
0.000000
0.000000
0.000000
0.000000
0.000000
0.000000
0.000000
0.000000
0.000000
0.000000
0.000000
0.000000
0.000000
0.000000
0.000000
0.000000
0.000000
0.000000
0.000000
0.000000
0.000000
0.000000
0.000000
0.000000
0.000000
0.000000
0.000000
0.000000
0.000000
0.000000
0.000000
0.000000
0.000000
0.000000
0.000000
0.000000
0.000000
0.000000
0.000000
0.000000
0.000000
0.000000
0.000000
0.000000
0.000000
0.000000
0.000000
0.000000
0.000000
0.000000
0.000000
0.000000
0.000000
0.000000
0.000000
0.000000
0.000000
0.000000
0.000000
0.000000
0.000000
0.000000
0.000000
0.000000
0.000000
0.000000
0.000000
0.000000
0.000000
0.000000
0.000000
0.000000
0.000000
0.000000
0.000000
0.000000
0.000000
0.000000
0.000000
0.000000
0.000000
0.000000
0.000000
0.000000
0.000000
0.000000
0.000000
0.000000
0.000000
0.000000
0.000000
0.000000
0.000000
0.000000
0.000000
0.000000
0.000000
0.000000
0.000000
0.000000
0.000000
0.000000
0.000000
0.000000
0.000000
0.000000
0.000000
0.000000
0.000000
0.000000
0.000000
0.000000
0.000000
0.000000
0.000000
0.000000
0.000000
0.000000
0.000000
0.000000
0.000000
0.000000
0.000000
0.000000
0.000000
0.000000
0.000000
0.000000
0.000000
0.000000
0.000000
0.000000
0.000000
0.000000
0.000000
0.000000
0.000000
0.000000
0.000000
0.000000
0.000000
0.000000
0.000000
0.000000
0.000000
0.000000
0.000000
0.000000
0.000000
0.000000
0.000000
0.000000
0.000000
0.000000
0.000000
0.000000
0.000000
0.000000
0.000000
0.000000
0.000000
0.000000
0.000000
0.000000
0.000000
0.000000
0.000000
0.000000
0.000000
0.000000
0.000000
0.000000
0.000000
0.000000
0.000000
0.000000
0.000000
0.000000
0.000000
0.000000
0.000000
0.000000
0.000000
0.000000
0.000000
0.000000
0.000000
0.000000
0.000000
0.000000
0.000000
0.000000
0.000000
0.000000
0.000000
0.000000
0.000000
0.000000
0.000000
0.000000
0.000000
0.000000
0.000000
0.000000
0.000000
0.000000
0.000000
0.000000
0.000000
0.000000
0.000000
0.000000
0.000000
0.000000
0.000000
0.000000
0.000000
0.000000
0.000000
0.000000
0.000000
0.000000
0.000000
0.000000
0.000000
0.000000
0.000000
0.000000
0.000000
0.000000
0.000000
0.000000
0.000000
0.000000
0.000000
0.000000
0.000000
0.000000
0.000000
0.000000
0.000000
0.000000
0.000000
0.000000
0.000000
0.000000
0.000000
0.000000
0.000000
0.000000
0.000000
0.000000
0.000000
0.000000
0.000000
0.000000
0.000000
0.000000
0.000000
0.000000
0.000000
0.000000
0.000000
0.000000
0.000000
0.000000
0.000000
0.000000
0.000000
0.000000
0.000000

SCALARS u_y FLOAT 1
LOOKUP_TABLE default
0.000000
0.000000
-0.003575
-0.003575
-0.007143
-0.007143
-0.010708
-0.010708
-0.014268
-0.014268
-0.017821
-0.017821
-0.021371
-0.021371
-0.024916
-0.024916
-0.028457
-0.028457
-0.031989
-0.031989
-0.035520
-0.035520
-0.039044
-0.039044
-0.042566
-0.042566
-0.046080
-0.046080
-0.049589
-0.049589
-0.053094
-0.053094
-0.056593
-0.056593
-0.060089
-0.060089
-0.063579
-0.063579
-0.067063
-0.067063
-0.070544
-0.070544
-0.074018
-0.074018
-0.077486
-0.077486
-0.080950
-0.080950
-0.084409
-0.084409
-0.087863
-0.087863
-0.091311
-0.091311
-0.094757
-0.094757
-0.098194
-0.098194
-0.101627
-0.101627
-0.105054
-0.105054
-0.108478
-0.108478
-0.111898
-0.111898
-0.115307
-0.115307
-0.118716
-0.118716
-0.122117
-0.122117
-0.125511
-0.125511
-0.128902
-0.128902
-0.132290
-0.132290
-0.135672
-0.135672
-0.139046
-0.139046
-0.142415
-0.142415
-0.145782
-0.145782
-0.149139
-0.149139
-0.152492
-0.152492
-0.155841
-0.155841
-0.159183
-0.159183
-0.162522
-0.162522
-0.165855
-0.165855
-0.169180
-0.169180
-0.172500
-0.172500
-0.175816
-0.175816
-0.179126
-0.179126
-0.182431
-0.182431
-0.185729
-0.185729
-0.189023
-0.189023
-0.192310
-0.192310
-0.195594
-0.195594
-0.198871
-0.198871
-0.202140
-0.202140
-0.205407
-0.205407
-0.208665
-0.208665
-0.211921
-0.211921
-0.215172
-0.215172
-0.218414
-0.218414
-0.221650
-0.221650
-0.224881
-0.224881
-0.228107
-0.228107
-0.231327
-0.231327
-0.234542
-0.234542
-0.237749
-0.237749
-0.240952
-0.240952
-0.244149
-0.244149
-0.247340
-0.247340
-0.250524
-0.250524
-0.253703
-0.253703
-0.256876
-0.256876
-0.260045
-0.260045
-0.263207
-0.263207
-0.266363
-0.266363
-0.269513
-0.269513
-0.272658
-0.272658
-0.275795
-0.275795
-0.278927
-0.278927
-0.282053
-0.282053
-0.285175
-0.285175
-0.288287
-0.288287
-0.291394
-0.291394
-0.294496
-0.294496
-0.297594
-0.297594
-0.300684
-0.300684
-0.303769
-0.303769
-0.306844
-0.306844
-0.309919
-0.309919
-0.312982
-0.312982
-0.316041
-0.316041
-0.319093
-0.319093
-0.322140
-0.322140
-0.325181
-0.325181
-0.328216
-0.328216
-0.331243
-0.331243
-0.334268
-0.334268
-0.337280
-0.337280
-0.340291
-0.340291
-0.343293
-0.343293
-0.346289
-0.346289
-0.349279
-0.349279
-0.352262
-0.352262
-0.355240
-0.355240
-0.358210
-0.358210
-0.361176
-0.361176
-0.364134
-0.364134
-0.367086
-0.367086
-0.370030
-0.370030
-0.372967
-0.372967
-0.375901
-0.375901
-0.378824
-0.378824
-0.381744
-0.381744
-0.384658
-0.384658
-0.387565
-0.387565
-0.390459
-0.390459
-0.393353
-0.393353
-0.396237
-0.396237
-0.399119
-0.399119
-0.401993
-0.401993
-0.404861
-0.404861
-0.407717
-0.407717
-0.410568
-0.410568
-0.413414
-0.413414
-0.416253
-0.416253
-0.419084
-0.419084
-0.421909
-0.421909
-0.424726
-0.424726
-0.427535
-0.427535
-0.430342
-0.430342
-0.433142
-0.433142
-0.435931
-0.435931
-0.438714
-0.438714
-0.441490
-0.441490
-0.444260
-0.444260
-0.447022
-0.447022
-0.449776
-0.449776
-0.452524
-0.452524
-0.455268
-0.455268
-0.458004
-0.458004
-0.460730
-0.460730
-0.463447
-0.463447
-0.466158
-0.466158
-0.468869
-0.468869
-0.471563
-0.471563
-0.474257
-0.474257
-0.476940
-0.476940
-0.479617
-0.479617
-0.482285
-0.482285
-0.484945
-0.484945
-0.487604
-0.487604
-0.490251
-0.490251
-0.492888
-0.492888
-0.495521
-0.495521
-0.498146
-0.498146
-0.500764
-0.500764
-0.503374
-0.503374
-0.505974
-0.505974
-0.508572
-0.508572
-0.511155
-0.511155
-0.513736
-0.513736
-0.516309
-0.516309
-0.518871
-0.518871
-0.521430
-0.521430
-0.523981
-0.523981
-0.526520
-0.526520
-0.529053
-0.529053
-0.531581
-0.531581
-0.534098
-0.534098
-0.536608
-0.536608
-0.539111
-0.539111
-0.541604
-0.541604
-0.544092
-0.544092
-0.546572
-0.546572
-0.549039
-0.549039
-0.551504
-0.551504
-0.553961
-0.553961
-0.556406
-0.556406
-0.558842
-0.558842
-0.561277
-0.561277
-0.563697
-0.563697
-0.566114
-0.566114
-0.568519
-0.568519
-0.570918
-0.570918
-0.573304
-0.573304
-0.575690
-0.575690
-0.578065
-0.578065
-0.580427
-0.580427
-0.582786
-0.582786
-0.585136
-0.585136
-0.587469
-0.587469
-0.589806
-0.589806
-0.592128
-0.592128
-0.594439
-0.594439
-0.596748
-0.596748
-0.599049
-0.599049
-0.601334
-0.601334
-0.603617
-0.603617
-0.605890
-0.605890
-0.608150
-0.608150
-0.610411
-0.610411
-0.612651
-0.612651
-0.614891
-0.614891
-0.617120
-0.617120
-0.619338
-0.619338
-0.621552
-0.621552
-0.623752
-0.623752
-0.625946
-0.625946
-0.628131
-0.628131
-0.630304
-0.630304
-0.632473
-0.632473
-0.634630
-0.634630
-0.636777
-0.636777
-0.638922
-0.638922
-0.641047
-0.641047
-0.643172
-0.643172
-0.645277
-0.645277
-0.647388
-0.647388
-0.649477
-0.649477
-0.651561
-0.651561
-0.653637
-0.653637
-0.655702
-0.655702
-0.657761
-0.657761
-0.659806
-0.659806
-0.661846
-0.661846
-0.663873
-0.663873
-0.665891
-0.665891
-0.667900
-0.667900
-0.669899
-0.669899
-0.671889
-0.671889
-0.673866
-0.673866
-0.675835
-0.675835
-0.677801
-0.677801
-0.679751
-0.679751
-0.681691
-0.681691
-0.683621
-0.683621
-0.685543
-0.685543
-0.687457
-0.687457
-0.689355
-0.689355
-0.691249
-0.691249
-0.693130
-0.693130
-0.695003
-0.695003
-0.696866
-0.696866
-0.698711
-0.698711
-0.700557
-0.700557
-0.702384
-0.702384
-0.704210
-0.704210
-0.706015
-0.706015
-0.707819
-0.707819
-0.709606
-0.709606
-0.711386
-0.711386
-0.713156
-0.713156
-0.714913
-0.714913
-0.716662
-0.716662
-0.718398
-0.718398
-0.720125
-0.720125
-0.721839
-0.721839
-0.723548
-0.723548
-0.725240
-0.725240
-0.726926
-0.726926
-0.728596
-0.728596
-0.730256
-0.730256
-0.731913
-0.731913
-0.733548
-0.733548
-0.735180
-0.735180
-0.736796
-0.736796
-0.738398
-0.738398
-0.740005
-0.740005
-0.741586
-0.741586
-0.743157
-0.743157
-0.744726
-0.744726
-0.746269
-0.746269
-0.747811
-0.747811
-0.749343
-0.749343
-0.750854
-0.750854
-0.752360
-0.752360
-0.753853
-0.753853
-0.755331
-0.755331
-0.756806
-0.756806
-0.758267
-0.758267
-0.759712
-0.759712
-0.761144
-0.761144
-0.762565
-0.762565
-0.763975
-0.763975
-0.765378
-0.765378
-0.766761
-0.766761
-0.768137
-0.768137
-0.769502
-0.769502
-0.770852
-0.770852
-0.772190
-0.772190
-0.773519
-0.773519
-0.774830
-0.774830
-0.776130
-0.776130
-0.777423
-0.777423
-0.778699
-0.778699
-0.779957
-0.779957
-0.781210
-0.781210
-0.782454
-0.782454
-0.783677
-0.783677
-0.784886
-0.784886
-0.786090
-0.786090
-0.787281
-0.787281
-0.788451
-0.788451
-0.789607
-0.789607
-0.790760
-0.790760
-0.791898
-0.791898
-0.793018
-0.793018
-0.794124
-0.794124
-0.795223
-0.795223
-0.796308
-0.796308
-0.797375
-0.797375
-0.798423
-0.798423
-0.799466
-0.799466
-0.800497
-0.800497
-0.801513
-0.801513
-0.802511
-0.802511
-0.803495
-0.803495
-0.804470
-0.804470
-0.805430
-0.805430
-0.806375
-0.806375
-0.807305
-0.807305
-0.808218
-0.808218
-0.809122
-0.809122
-0.810011
-0.810011
-0.810884
-0.810884
-0.811743
-0.811743
-0.812586
-0.812586
-0.813418
-0.813418
-0.814233
-0.814233
-0.815034
-0.815034
-0.815819
-0.815819
-0.816589
-0.816589
-0.817344
-0.817344
-0.818089
-0.818089
-0.818814
-0.818814
-0.819525
-0.819525
-0.820219
-0.820219
-0.820898
-0.820898
-0.821561
-0.821561
-0.822210
-0.822210
-0.822848
-0.822848
-0.823469
-0.823469
-0.824070
-0.824070
-0.824655
-0.824655
-0.825224
-0.825224
-0.825777
-0.825777
-0.826314
-0.826314
-0.826834
-0.826834
-0.827343
-0.827343
-0.827838
-0.827838
-0.828316
-0.828316
-0.828778
-0.828778
-0.829217
-0.829217
-0.829640
-0.829640
-0.830046
-0.830046
-0.830435
-0.830435
-0.830807
-0.830807
-0.831162
-0.831162
-0.831500
-0.831500
-0.831821
-0.831821
-0.832124
-0.832124
-0.832412
-0.832412
-0.832683
-0.832683
-0.832937
-0.832937
-0.833172
-0.833172
-0.833390
-0.833390
-0.833590
-0.833590
-0.833773
-0.833773
-0.833936
-0.833936
-0.834082
-0.834082
-0.834209
-0.834209
-0.834318
-0.834318
-0.834408
-0.834408
-0.834480
-0.834480
-0.834533
-0.834533
-0.834565
-0.834565
-0.834586
-0.834586
-0.834535
-0.834535
0.000000
0.000000
0.000000
0.000000
0.000000
0.000000
0.000000
0.000000
0.000000
0.000000
0.000000
0.000000
0.000000
0.000000
0.000000
0.000000
0.000000
0.000000
0.000000
0.000000
0.000000
0.000000
0.000000
0.000000
0.000000
0.000000
0.000000
0.000000
0.000000
0.000000
0.000000
0.000000
0.000000
0.000000
0.000000
0.000000
0.000000
0.000000
0.000000
0.000000
0.000000
0.000000
0.000000
0.000000
0.000000
0.000000
0.000000
0.000000
0.000000
0.000000
0.000000
0.000000
0.000000
0.000000
0.000000
0.000000
0.000000
0.000000
0.000000
0.000000
0.000000
0.000000
0.000000
0.000000
0.000000
0.000000
0.000000
0.000000
0.000000
0.000000
0.000000
0.000000
0.000000
0.000000
0.000000
0.000000
0.000000
0.000000
0.000000
0.000000
0.000000
0.000000
0.000000
0.000000
0.000000
0.000000
0.000000
0.000000
0.000000
0.000000
0.000000
0.000000
0.000000
0.000000
0.000000
0.000000
0.000000
0.000000
0.000000
0.000000
0.000000
0.000000
0.000000
0.000000
0.000000
0.000000
0.000000
0.000000
0.000000
0.000000
0.000000
0.000000
0.000000
0.000000
0.000000
0.000000
0.000000
0.000000
0.000000
0.000000
0.000000
0.000000
0.000000
0.000000
0.000000
0.000000
0.000000
0.000000
0.000000
0.000000
0.000000
0.000000
0.000000
0.000000
0.000000
0.000000
0.000000
0.000000
0.000000
0.000000
0.000000
0.000000
0.000000
0.000000
0.000000
0.000000
0.000000
0.000000
0.000000
0.000000
0.000000
0.000000
0.000000
0.000000
0.000000
0.000000
0.000000
0.000000
0.000000
0.000000
0.000000
0.000000
0.000000
0.000000
0.000000
0.000000
0.000000
0.000000
0.000000
0.000000
0.000000
0.000000
0.000000
0.000000
0.000000
0.000000
0.000000
0.000000
0.000000
0.000000
0.000000
0.000000
0.000000
0.000000
0.000000
0.000000
0.000000
0.000000
0.000000
0.000000
0.000000
0.000000
0.000000
0.000000
0.000000
0.000000
0.000000
0.000000
0.000000
0.000000
0.000000
0.000000
0.000000
0.000000
0.000000
0.000000
0.000000
0.000000
0.000000
0.000000
0.000000
0.000000
0.000000
0.000000
0.000000
0.000000
0.000000
0.000000
0.000000
0.000000
0.000000
0.000000
0.000000
0.000000
0.000000
0.000000
0.000000
0.000000
0.000000
0.000000
0.000000
0.000000
0.000000
0.000000
0.000000
0.000000
0.000000
0.000000
0.000000
0.000000
0.000000
0.000000
0.000000
0.000000
0.000000
0.000000
0.000000
0.000000
0.000000
0.000000
0.000000
0.000000
0.000000
0.000000
0.000000
0.000000
0.000000
0.000000
0.000000
0.000000

