# vtk DataFile Version 2.0
MATLAB generated vtk file, WMC
ASCII
DATASET UNSTRUCTURED_GRID
POINTS 1026 double
0.000000 0.000000 0.000000 
0.097656 0.000000 0.000000 
0.000000 0.097656 0.000000 
0.097656 0.097656 0.000000 
0.000000 0.195312 0.000000 
0.097656 0.195312 0.000000 
0.000000 0.292969 0.000000 
0.097656 0.292969 0.000000 
0.000000 0.390625 0.000000 
0.097656 0.390625 0.000000 
0.000000 0.488281 0.000000 
0.097656 0.488281 0.000000 
0.000000 0.585938 0.000000 
0.097656 0.585938 0.000000 
0.000000 0.683594 0.000000 
0.097656 0.683594 0.000000 
0.000000 0.781250 0.000000 
0.097656 0.781250 0.000000 
0.000000 0.878906 0.000000 
0.097656 0.878906 0.000000 
0.000000 0.976562 0.000000 
0.097656 0.976562 0.000000 
0.000000 1.074219 0.000000 
0.097656 1.074219 0.000000 
0.000000 1.171875 0.000000 
0.097656 1.171875 0.000000 
0.000000 1.269531 0.000000 
0.097656 1.269531 0.000000 
0.000000 1.367188 0.000000 
0.097656 1.367188 0.000000 
0.000000 1.464844 0.000000 
0.097656 1.464844 0.000000 
0.000000 1.562500 0.000000 
0.097656 1.562500 0.000000 
0.000000 1.660156 0.000000 
0.097656 1.660156 0.000000 
0.000000 1.757812 0.000000 
0.097656 1.757812 0.000000 
0.000000 1.855469 0.000000 
0.097656 1.855469 0.000000 
0.000000 1.953125 0.000000 
0.097656 1.953125 0.000000 
0.000000 2.050781 0.000000 
0.097656 2.050781 0.000000 
0.000000 2.148438 0.000000 
0.097656 2.148438 0.000000 
0.000000 2.246094 0.000000 
0.097656 2.246094 0.000000 
0.000000 2.343750 0.000000 
0.097656 2.343750 0.000000 
0.000000 2.441406 0.000000 
0.097656 2.441406 0.000000 
0.000000 2.539062 0.000000 
0.097656 2.539062 0.000000 
0.000000 2.636719 0.000000 
0.097656 2.636719 0.000000 
0.000000 2.734375 0.000000 
0.097656 2.734375 0.000000 
0.000000 2.832031 0.000000 
0.097656 2.832031 0.000000 
0.000000 2.929688 0.000000 
0.097656 2.929688 0.000000 
0.000000 3.027344 0.000000 
0.097656 3.027344 0.000000 
0.000000 3.125000 0.000000 
0.097656 3.125000 0.000000 
0.000000 3.222656 0.000000 
0.097656 3.222656 0.000000 
0.000000 3.320312 0.000000 
0.097656 3.320312 0.000000 
0.000000 3.417969 0.000000 
0.097656 3.417969 0.000000 
0.000000 3.515625 0.000000 
0.097656 3.515625 0.000000 
0.000000 3.613281 0.000000 
0.097656 3.613281 0.000000 
0.000000 3.710938 0.000000 
0.097656 3.710938 0.000000 
0.000000 3.808594 0.000000 
0.097656 3.808594 0.000000 
0.000000 3.906250 0.000000 
0.097656 3.906250 0.000000 
0.000000 4.003906 0.000000 
0.097656 4.003906 0.000000 
0.000000 4.101562 0.000000 
0.097656 4.101562 0.000000 
0.000000 4.199219 0.000000 
0.097656 4.199219 0.000000 
0.000000 4.296875 0.000000 
0.097656 4.296875 0.000000 
0.000000 4.394531 0.000000 
0.097656 4.394531 0.000000 
0.000000 4.492188 0.000000 
0.097656 4.492188 0.000000 
0.000000 4.589844 0.000000 
0.097656 4.589844 0.000000 
0.000000 4.687500 0.000000 
0.097656 4.687500 0.000000 
0.000000 4.785156 0.000000 
0.097656 4.785156 0.000000 
0.000000 4.882812 0.000000 
0.097656 4.882812 0.000000 
0.000000 4.980469 0.000000 
0.097656 4.980469 0.000000 
0.000000 5.078125 0.000000 
0.097656 5.078125 0.000000 
0.000000 5.175781 0.000000 
0.097656 5.175781 0.000000 
0.000000 5.273438 0.000000 
0.097656 5.273438 0.000000 
0.000000 5.371094 0.000000 
0.097656 5.371094 0.000000 
0.000000 5.468750 0.000000 
0.097656 5.468750 0.000000 
0.000000 5.566406 0.000000 
0.097656 5.566406 0.000000 
0.000000 5.664062 0.000000 
0.097656 5.664062 0.000000 
0.000000 5.761719 0.000000 
0.097656 5.761719 0.000000 
0.000000 5.859375 0.000000 
0.097656 5.859375 0.000000 
0.000000 5.957031 0.000000 
0.097656 5.957031 0.000000 
0.000000 6.054688 0.000000 
0.097656 6.054688 0.000000 
0.000000 6.152344 0.000000 
0.097656 6.152344 0.000000 
0.000000 6.250000 0.000000 
0.097656 6.250000 0.000000 
0.000000 6.347656 0.000000 
0.097656 6.347656 0.000000 
0.000000 6.445312 0.000000 
0.097656 6.445312 0.000000 
0.000000 6.542969 0.000000 
0.097656 6.542969 0.000000 
0.000000 6.640625 0.000000 
0.097656 6.640625 0.000000 
0.000000 6.738281 0.000000 
0.097656 6.738281 0.000000 
0.000000 6.835938 0.000000 
0.097656 6.835938 0.000000 
0.000000 6.933594 0.000000 
0.097656 6.933594 0.000000 
0.000000 7.031250 0.000000 
0.097656 7.031250 0.000000 
0.000000 7.128906 0.000000 
0.097656 7.128906 0.000000 
0.000000 7.226562 0.000000 
0.097656 7.226562 0.000000 
0.000000 7.324219 0.000000 
0.097656 7.324219 0.000000 
0.000000 7.421875 0.000000 
0.097656 7.421875 0.000000 
0.000000 7.519531 0.000000 
0.097656 7.519531 0.000000 
0.000000 7.617188 0.000000 
0.097656 7.617188 0.000000 
0.000000 7.714844 0.000000 
0.097656 7.714844 0.000000 
0.000000 7.812500 0.000000 
0.097656 7.812500 0.000000 
0.000000 7.910156 0.000000 
0.097656 7.910156 0.000000 
0.000000 8.007812 0.000000 
0.097656 8.007812 0.000000 
0.000000 8.105469 0.000000 
0.097656 8.105469 0.000000 
0.000000 8.203125 0.000000 
0.097656 8.203125 0.000000 
0.000000 8.300781 0.000000 
0.097656 8.300781 0.000000 
0.000000 8.398438 0.000000 
0.097656 8.398438 0.000000 
0.000000 8.496094 0.000000 
0.097656 8.496094 0.000000 
0.000000 8.593750 0.000000 
0.097656 8.593750 0.000000 
0.000000 8.691406 0.000000 
0.097656 8.691406 0.000000 
0.000000 8.789062 0.000000 
0.097656 8.789062 0.000000 
0.000000 8.886719 0.000000 
0.097656 8.886719 0.000000 
0.000000 8.984375 0.000000 
0.097656 8.984375 0.000000 
0.000000 9.082031 0.000000 
0.097656 9.082031 0.000000 
0.000000 9.179688 0.000000 
0.097656 9.179688 0.000000 
0.000000 9.277344 0.000000 
0.097656 9.277344 0.000000 
0.000000 9.375000 0.000000 
0.097656 9.375000 0.000000 
0.000000 9.472656 0.000000 
0.097656 9.472656 0.000000 
0.000000 9.570312 0.000000 
0.097656 9.570312 0.000000 
0.000000 9.667969 0.000000 
0.097656 9.667969 0.000000 
0.000000 9.765625 0.000000 
0.097656 9.765625 0.000000 
0.000000 9.863281 0.000000 
0.097656 9.863281 0.000000 
0.000000 9.960938 0.000000 
0.097656 9.960938 0.000000 
0.000000 10.058594 0.000000 
0.097656 10.058594 0.000000 
0.000000 10.156250 0.000000 
0.097656 10.156250 0.000000 
0.000000 10.253906 0.000000 
0.097656 10.253906 0.000000 
0.000000 10.351562 0.000000 
0.097656 10.351562 0.000000 
0.000000 10.449219 0.000000 
0.097656 10.449219 0.000000 
0.000000 10.546875 0.000000 
0.097656 10.546875 0.000000 
0.000000 10.644531 0.000000 
0.097656 10.644531 0.000000 
0.000000 10.742188 0.000000 
0.097656 10.742188 0.000000 
0.000000 10.839844 0.000000 
0.097656 10.839844 0.000000 
0.000000 10.937500 0.000000 
0.097656 10.937500 0.000000 
0.000000 11.035156 0.000000 
0.097656 11.035156 0.000000 
0.000000 11.132812 0.000000 
0.097656 11.132812 0.000000 
0.000000 11.230469 0.000000 
0.097656 11.230469 0.000000 
0.000000 11.328125 0.000000 
0.097656 11.328125 0.000000 
0.000000 11.425781 0.000000 
0.097656 11.425781 0.000000 
0.000000 11.523438 0.000000 
0.097656 11.523438 0.000000 
0.000000 11.621094 0.000000 
0.097656 11.621094 0.000000 
0.000000 11.718750 0.000000 
0.097656 11.718750 0.000000 
0.000000 11.816406 0.000000 
0.097656 11.816406 0.000000 
0.000000 11.914062 0.000000 
0.097656 11.914062 0.000000 
0.000000 12.011719 0.000000 
0.097656 12.011719 0.000000 
0.000000 12.109375 0.000000 
0.097656 12.109375 0.000000 
0.000000 12.207031 0.000000 
0.097656 12.207031 0.000000 
0.000000 12.304688 0.000000 
0.097656 12.304688 0.000000 
0.000000 12.402344 0.000000 
0.097656 12.402344 0.000000 
0.000000 12.500000 0.000000 
0.097656 12.500000 0.000000 
0.000000 12.597656 0.000000 
0.097656 12.597656 0.000000 
0.000000 12.695312 0.000000 
0.097656 12.695312 0.000000 
0.000000 12.792969 0.000000 
0.097656 12.792969 0.000000 
0.000000 12.890625 0.000000 
0.097656 12.890625 0.000000 
0.000000 12.988281 0.000000 
0.097656 12.988281 0.000000 
0.000000 13.085938 0.000000 
0.097656 13.085938 0.000000 
0.000000 13.183594 0.000000 
0.097656 13.183594 0.000000 
0.000000 13.281250 0.000000 
0.097656 13.281250 0.000000 
0.000000 13.378906 0.000000 
0.097656 13.378906 0.000000 
0.000000 13.476562 0.000000 
0.097656 13.476562 0.000000 
0.000000 13.574219 0.000000 
0.097656 13.574219 0.000000 
0.000000 13.671875 0.000000 
0.097656 13.671875 0.000000 
0.000000 13.769531 0.000000 
0.097656 13.769531 0.000000 
0.000000 13.867188 0.000000 
0.097656 13.867188 0.000000 
0.000000 13.964844 0.000000 
0.097656 13.964844 0.000000 
0.000000 14.062500 0.000000 
0.097656 14.062500 0.000000 
0.000000 14.160156 0.000000 
0.097656 14.160156 0.000000 
0.000000 14.257812 0.000000 
0.097656 14.257812 0.000000 
0.000000 14.355469 0.000000 
0.097656 14.355469 0.000000 
0.000000 14.453125 0.000000 
0.097656 14.453125 0.000000 
0.000000 14.550781 0.000000 
0.097656 14.550781 0.000000 
0.000000 14.648438 0.000000 
0.097656 14.648438 0.000000 
0.000000 14.746094 0.000000 
0.097656 14.746094 0.000000 
0.000000 14.843750 0.000000 
0.097656 14.843750 0.000000 
0.000000 14.941406 0.000000 
0.097656 14.941406 0.000000 
0.000000 15.039062 0.000000 
0.097656 15.039062 0.000000 
0.000000 15.136719 0.000000 
0.097656 15.136719 0.000000 
0.000000 15.234375 0.000000 
0.097656 15.234375 0.000000 
0.000000 15.332031 0.000000 
0.097656 15.332031 0.000000 
0.000000 15.429688 0.000000 
0.097656 15.429688 0.000000 
0.000000 15.527344 0.000000 
0.097656 15.527344 0.000000 
0.000000 15.625000 0.000000 
0.097656 15.625000 0.000000 
0.000000 15.722656 0.000000 
0.097656 15.722656 0.000000 
0.000000 15.820312 0.000000 
0.097656 15.820312 0.000000 
0.000000 15.917969 0.000000 
0.097656 15.917969 0.000000 
0.000000 16.015625 0.000000 
0.097656 16.015625 0.000000 
0.000000 16.113281 0.000000 
0.097656 16.113281 0.000000 
0.000000 16.210938 0.000000 
0.097656 16.210938 0.000000 
0.000000 16.308594 0.000000 
0.097656 16.308594 0.000000 
0.000000 16.406250 0.000000 
0.097656 16.406250 0.000000 
0.000000 16.503906 0.000000 
0.097656 16.503906 0.000000 
0.000000 16.601562 0.000000 
0.097656 16.601562 0.000000 
0.000000 16.699219 0.000000 
0.097656 16.699219 0.000000 
0.000000 16.796875 0.000000 
0.097656 16.796875 0.000000 
0.000000 16.894531 0.000000 
0.097656 16.894531 0.000000 
[...]
POINT_DATA 1026
SCALARS u_x FLOAT 1
LOOKUP_TABLE default
0.000000
0.000000
0.000000
0.000000
0.000000
0.000000
0.000000
0.000000
0.000000
0.000000
0.000000
0.000000
0.000000
0.000000
0.000000
0.000000
0.000000
0.000000
0.000000
0.000000
0.000000
0.000000
0.000000
0.000000
0.000000
0.000000
0.000000
0.000000
0.000000
0.000000
0.000000
0.000000
0.000000
0.000000
0.000000
0.000000
0.000000
0.000000
0.000000
0.000000
0.000000
0.000000
0.000000
0.000000
0.000000
0.000000
0.000000
0.000000
0.000000
0.000000
0.000000
0.000000
0.000000
0.000000
0.000000
0.000000
0.000000
0.000000
0.000000
0.000000
0.000000
0.000000
0.000000
0.000000
0.000000
0.000000
0.000000
0.000000
0.000000
0.000000
0.000000
0.000000
0.000000
0.000000
0.000000
0.000000
0.000000
0.000000
0.000000
0.000000
0.000000
0.000000
0.000000
0.000000
0.000000
0.000000
0.000000
0.000000
0.000000
0.000000
0.000000
0.000000
0.000000
0.000000
0.000000
0.000000
0.000000
0.000000
0.000000
0.000000
0.000000
0.000000
0.000000
0.000000
0.000000
0.000000
0.000000
0.000000
0.000000
0.000000
0.000000
0.000000
0.000000
0.000000
0.000000
0.000000
0.000000
0.000000
0.000000
0.000000
0.000000
0.000000
0.000000
0.000000
0.000000
0.000000
0.000000
0.000000
0.000000
0.000000
0.000000
0.000000
0.000000
0.000000
0.000000
0.000000
0.000000
0.000000
0.000000
0.000000
0.000000
0.000000
0.000000
0.000000
0.000000
0.000000
0.000000
0.000000
0.000000
0.000000
0.000000
0.000000
0.000000
0.000000
0.000000
0.000000
0.000000
0.000000
0.000000
0.000000
0.000000
0.000000
0.000000
0.000000
0.000000
0.000000
0.000000
0.000000
0.000000
0.000000
0.000000
0.000000
0.000000
0.000000
0.000000
0.000000
0.000000
0.000000
0.000000
0.000000
0.000000
0.000000
0.000000
0.000000
0.000000
0.000000
0.000000
0.000000
0.000000
0.000000
0.000000
0.000000
0.000000
0.000000
0.000000
0.000000
0.000000
0.000000
0.000000
0.000000
0.000000
0.000000
0.000000
0.000000
0.000000
0.000000
0.000000
0.000000
0.000000
0.000000
0.000000
0.000000
0.000000
0.000000
0.000000
0.000000
0.000000
0.000000
0.000000
0.000000
0.000000
0.000000
0.000000
0.000000
0.000000
0.000000
0.000000
0.000000
0.000000
0.000000
0.000000
0.000000
0.000000
0.000000
0.000000
0.000000
0.000000
0.000000
0.000000
0.000000
0.000000
0.000000
0.000000
0.000000
0.000000
0.000000
0.000000
0.000000
0.000000
0.000000
0.000000
0.000000
0.000000
0.000000
0.000000
0.000000
0.000000
0.000000
0.000000
0.000000
0.000000
0.000000
0.000000
0.000000
0.000000
0.000000
0.000000
0.000000
0.000000
0.000000
0.000000
0.000000
0.000000
0.000000
0.000000
0.000000
0.000000
0.000000
0.000000
0.000000
0.000000
0.000000
0.000000
0.000000
0.000000
0.000000
0.000000
0.000000
0.000000
0.000000
0.000000
0.000000
0.000000
0.000000
0.000000
0.000000
0.000000
0.000000
0.000000
0.000000
0.000000
0.000000
0.000000
0.000000
0.000000
0.000000
0.000000
0.000000
0.000000
0.000000
0.000000
0.000000
0.000000
0.000000
0.000000
0.000000
0.000000
0.000000
0.000000
0.000000
0.000000
0.000000
0.000000
0.000000
0.000000
0.000000
0.000000
0.000000
0.000000
0.000000
0.000000
0.000000
0.000000
0.000000
0.000000
0.000000
0.000000
0.000000
0.000000
0.000000
0.000000
0.000000
0.000000
0.000000
0.000000
0.000000
0.000000
0.000000
0.000000
0.000000
0.000000
0.000000
0.000000
0.000000
0.000000
0.000000
0.000000
0.000000
0.000000
0.000000
0.000000
0.000000
0.000000
0.000000
0.000000
0.000000
0.000000
0.000000
0.000000
0.000000
0.000000
0.000000
0.000000
0.000000
0.000000
0.000000
0.000000
0.000000
0.000000
0.000000
0.000000
0.000000
0.000000
0.000000
0.000000
0.000000
0.000000
0.000000
0.000000
0.000000
0.000000
0.000000
0.000000
0.000000
0.000000
0.000000
0.000000
0.000000
0.000000
0.000000
0.000000
0.000000
0.000000
0.000000
0.000000
0.000000
0.000000
0.000000
0.000000
0.000000
0.000000
0.000000
0.000000
0.000000
0.000000
0.000000
0.000000
0.000000
0.000000
0.000000
0.000000
0.000000
0.000000
0.000000
0.000000
0.000000
0.000000
0.000000
0.000000
0.000000
0.000000
0.000000
0.000000
0.000000
0.000000
0.000000
0.000000
0.000000
0.000000
0.000000
0.000000
0.000000
0.000000
0.000000
0.000000
0.000000
0.000000
0.000000
0.000000
0.000000
0.000000
0.000000
0.000000
0.000000
0.000000
0.000000
0.000000
0.000000
0.000000
0.000000
0.000000
0.000000
0.000000
0.000000
0.000000
0.000000
0.000000
0.000000
0.000000
0.000000
0.000000
0.000000
0.000000
0.000000
0.000000
0.000000
0.000000
0.000000
0.000000
0.000000
0.000000
0.000000
0.000000
0.000000
0.000000
0.000000
0.000000
0.000000
0.000000
0.000000
0.000000
0.000000
0.000000
0.000000
0.000000
0.000000
0.000000
0.000000
0.000000
0.000000
0.000000
0.000000
0.000000
0.000000
0.000000
0.000000
0.000000
0.000000
0.000000
0.000000
0.000000
0.000000
0.000000
0.000000
0.000000
0.000000
0.000000
0.000000
0.000000
0.000000
0.000000
0.000000
0.000000
0.000000
0.000000
0.000000
0.000000
0.000000
0.000000
0.000000
0.000000
0.000000
0.000000
0.000000
0.000000
0.000000
0.000000
0.000000
0.000000
0.000000
0.000000
0.000000
0.000000
0.000000
0.000000
0.000000
0.000000
0.000000
0.000000
0.000000
0.000000
0.000000
0.000000
0.000000
0.000000
0.000000
0.000000
0.000000
0.000000
0.000000
0.000000
0.000000
0.000000
0.000000
0.000000
0.000000
0.000000
0.000000
0.000000
0.000000
0.000000
0.000000
0.000000
0.000000
0.000000
0.000000
0.000000
0.000000
0.000000
0.000000
0.000000
0.000000
0.000000
0.000000
0.000000
0.000000
0.000000
0.000000
0.000000
0.000000
0.000000
0.000000
0.000000
0.000000
0.000000
0.000000
0.000000
0.000000
0.000000
0.000000
0.000000
0.000000
0.000000
0.000000
0.000000
0.000000
0.000000
0.000000
0.000000
0.000000
0.000000
0.000000
0.000000
0.000000
0.000000
0.000000
0.000000
0.000000
0.000000
0.000000
0.000000
0.000000
0.000000
0.000000
0.000000
0.000000
0.000000
0.000000
0.000000
0.000000
0.000000
0.000000
0.000000
0.000000
0.000000
0.000000
0.000000
0.000000
0.000000
0.000000
0.000000
0.000000
0.000000
0.000000
0.000000
0.000000
0.000000
0.000000
0.000000
0.000000
0.000000
0.000000
0.000000
0.000000
0.000000
0.000000
0.000000
0.000000
0.000000
0.000000
0.000000
0.000000
0.000000
0.000000
0.000000
0.000000
0.000000
0.000000
0.000000
0.000000
0.000000
0.000000
0.000000
0.000000
0.000000
0.000000
0.000000
0.000000
0.000000
0.000000
0.000000
0.000000
0.000000
0.000000
0.000000
0.000000
0.000000
0.000000
0.000000
0.000000
0.000000
0.000000
0.000000
0.000000
0.000000
0.000000
0.000000
0.000000
0.000000
0.000000
0.000000
0.000000
0.000000
0.000000
0.000000
0.000000
0.000000
0.000000
0.000000
0.000000
0.000000
0.000000
0.000000
0.000000
0.000000
0.000000
0.000000
0.000000
0.000000
0.000000
0.000000
0.000000
0.000000
0.000000
0.000000
0.000000
0.000000
0.000000
0.000000
0.000000
0.000000
0.000000
0.000000
0.000000
0.000000
0.000000
0.000000
0.000000
0.000000
0.000000
0.000000
0.000000
0.000000
0.000000
0.000000
0.000000
0.000000
0.000000
0.000000
0.000000
0.000000
0.000000
0.000000
0.000000
0.000000
0.000000
0.000000
0.000000
0.000000
0.000000
0.000000
0.000000
0.000000
0.000000
0.000000
0.000000
0.000000
0.000000
0.000000
0.000000
0.000000
0.000000
0.000000
0.000000
0.000000
0.000000
0.000000
0.000000
0.000000
0.000000
0.000000
0.000000
0.000000
0.000000
0.000000
0.000000
0.000000
0.000000
0.000000
0.000000
0.000000
0.000000
0.000000
0.000000
0.000000
0.000000
0.000000
0.000000
0.000000
0.000000
0.000000
0.000000
0.000000
0.000000
0.000000
0.000000
0.000000
0.000000
0.000000
0.000000
0.000000
0.000000
0.000000
0.000000
0.000000
0.000000
0.000000
0.000000
0.000000
0.000000
0.000000
0.000000
0.000000
0.000000
0.000000
0.000000
0.000000
0.000000
0.000000
0.000000
0.000000
0.000000
0.000000
0.000000
0.000000
0.000000
0.000000
0.000000
0.000000
0.000000
0.000000
0.000000
0.000000
0.000000
0.000000
0.000000
0.000000
0.000000
0.000000
0.000000
0.000000
0.000000
0.000000
0.000000
0.000000
0.000000
0.000000
0.000000
0.000000
0.000000
0.000000
0.000000
0.000000
0.000000
0.000000
0.000000
0.000000
0.000000
0.000000
0.000000
0.000000
0.000000
0.000000
0.000000
0.000000
0.000000
0.000000
0.000000
0.000000
0.000000
0.000000
0.000000
0.000000
0.000000
0.000000
0.000000
0.000000
0.000000
0.000000
0.000000
0.000000
0.000000
0.000000
0.000000
0.000000
0.000000
0.000000
0.000000
0.000000
0.000000
0.000000
0.000000
0.000000
0.000000
0.000000
0.000000
0.000000
0.000000
0.000000
0.000000
0.000000
0.000000
0.000000
0.000000
0.000000
0.000000
0.000000
0.000000
0.000000
0.000000
0.000000
0.000000
0.000000
0.000000
0.000000
0.000000
0.000000
0.000000
0.000000
0.000000
0.000000
0.000000
0.000000
0.000000
0.000000
0.000000
0.000000
0.000000
0.000000
0.000000
0.000000
0.000000
0.000000
0.000000
0.000000
0.000000
0.000000
0.000000
0.000000
0.000000
0.000000
0.000000
0.000000
0.000000
0.000000
0.000000
0.000000
0.000000
0.000000
0.000000
0.000000
0.000000
0.000000
0.000000
0.000000
0.000000
0.000000
0.000000
0.000000
0.000000
0.000000
0.000000
0.000000
0.000000
0.000000
0.000000
0.000000
0.000000
0.000000
0.000000
0.000000
0.000000
0.000000
0.000000
0.000000
0.000000
0.000000
0.000000
0.000000
0.000000
0.000000
0.000000
0.000000
0.000000
0.000000
0.000000
0.000000
0.000000
0.000000
0.000000
0.000000
0.000000
0.000000
0.000000
0.000000
0.000000
0.000000
0.000000
0.000000
0.000000
0.000000
0.000000
0.000000
0.000000
0.000000
0.000000
0.000000
0.000000
0.000000
0.000000
0.000000
0.000000
0.000000
0.000000
0.000000
0.000000

SCALARS u_y FLOAT 1
LOOKUP_TABLE default
0.000000
0.000000
-0.005183
-0.005183
-0.010358
-0.010358
-0.015523
-0.015523
-0.020685
-0.020685
-0.025836
-0.025836
-0.030979
-0.030979
-0.036117
-0.036117
-0.041245
-0.041245
-0.046364
-0.046364
-0.051481
-0.051481
-0.056587
-0.056587
-0.061684
-0.061684
-0.066773
-0.066773
-0.071858
-0.071858
-0.076931
-0.076931
-0.081999
-0.081999
-0.087058
-0.087058
-0.092111
-0.092111
-0.097154
-0.097154
-0.102191
-0.102191
-0.107217
-0.107217
-0.112239
-0.112239
-0.117251
-0.117251
-0.122255
-0.122255
-0.127256
-0.127256
-0.132244
-0.132244
-0.137222
-0.137222
-0.142197
-0.142197
-0.147165
-0.147165
-0.152117
-0.152117
-0.157070
-0.157070
-0.162010
-0.162010
-0.166943
-0.166943
-0.171870
-0.171870
-0.176787
-0.176787
-0.181694
-0.181694
-0.186600
-0.186600
-0.191492
-0.191492
-0.196377
-0.196377
-0.201255
-0.201255
-0.206125
-0.206125
-0.210986
-0.210986
-0.215839
-0.215839
-0.220685
-0.220685
-0.225522
-0.225522
-0.230347
-0.230347
-0.235170
-0.235170
-0.239983
-0.239983
-0.244786
-0.244786
-0.249583
-0.249583
-0.254371
-0.254371
-0.259149
-0.259149
-0.263924
-0.263924
-0.268684
-0.268684
-0.273441
-0.273441
-0.278186
-0.278186
-0.282928
-0.282928
-0.287657
-0.287657
-0.292377
-0.292377
-0.297092
-0.297092
-0.301797
-0.301797
-0.306492
-0.306492
-0.311182
-0.311182
-0.315861
-0.315861
-0.320536
-0.320536
-0.325195
-0.325195
-0.329851
-0.329851
-0.334497
-0.334497
-0.339134
-0.339134
-0.343766
-0.343766
-0.348384
-0.348384
-0.352999
-0.352999
-0.357602
-0.357602
-0.362200
-0.362200
-0.366784
-0.366784
-0.371360
-0.371360
-0.375933
-0.375933
-0.380494
-0.380494
-0.385046
-0.385046
-0.389589
-0.389589
-0.394125
-0.394125
-0.398653
-0.398653
-0.403168
-0.403168
-0.407680
-0.407680
-0.412178
-0.412178
-0.416672
-0.416672
-0.421154
-0.421154
-0.425629
-0.425629
-0.430095
-0.430095
-0.434550
-0.434550
-0.439000
-0.439000
-0.443440
-0.443440
-0.447869
-0.447869
-0.452290
-0.452290
-0.456705
-0.456705
-0.461107
-0.461107
-0.465503
-0.465503
-0.469886
-0.469886
-0.474267
-0.474267
-0.478636
-0.478636
-0.482995
-0.482995
-0.487344
-0.487344
-0.491686
-0.491686
-0.496018
-0.496018
-0.500343
-0.500343
-0.504656
-0.504656
-0.508961
-0.508961
-0.513259
-0.513259
-0.517544
-0.517544
-0.521826
-0.521826
-0.526094
-0.526094
-0.530353
-0.530353
-0.534601
-0.534601
-0.538846
-0.538846
-0.543078
-0.543078
-0.547302
-0.547302
-0.551515
-0.551515
-0.555721
-0.555721
-0.559917
-0.559917
-0.564105
-0.564105
-0.568278
-0.568278
-0.572449
-0.572449
-0.576606
-0.576606
-0.580758
-0.580758
-0.584895
-0.584895
-0.589026
-0.589026
-0.593147
-0.593147
-0.597260
-0.597260
-0.601361
-0.601361
-0.605457
-0.605457
-0.609538
-0.609538
-0.613613
-0.613613
-0.617677
-0.617677
-0.621732
-0.621732
-0.625781
-0.625781
-0.629816
-0.629816
-0.633842
-0.633842
-0.637858
-0.637858
-0.641867
-0.641867
-0.645867
-0.645867
-0.649855
-0.649855
-0.653830
-0.653830
-0.657803
-0.657803
-0.661758
-0.661758
-0.665711
-0.665711
-0.669649
-0.669649
-0.673580
-0.673580
-0.677501
-0.677501
-0.681412
-0.681412
-0.685312
-0.685312
-0.689204
-0.689204
-0.693087
-0.693087
-0.696956
-0.696956
-0.700820
-0.700820
-0.704668
-0.704668
-0.708513
-0.708513
-0.712346
-0.712346
-0.716167
-0.716167
-0.719980
-0.719980
-0.723782
-0.723782
-0.727575
-0.727575
-0.731358
-0.731358
-0.735132
-0.735132
-0.738889
-0.738889
-0.742642
-0.742642
-0.746386
-0.746386
-0.750117
-0.750117
-0.753841
-0.753841
-0.757550
-0.757550
-0.761253
-0.761253
-0.764944
-0.764944
-0.768626
-0.768626
-0.772297
-0.772297
-0.775956
-0.775956
-0.779610
-0.779610
-0.783247
-0.783247
-0.786879
-0.786879
-0.790499
-0.790499
-0.794106
-0.794106
-0.797710
-0.797710
-0.801300
-0.801300
-0.804876
-0.804876
-0.808442
-0.808442
-0.811999
-0.811999
-0.815547
-0.815547
-0.819083
-0.819083
-0.822611
-0.822611
-0.826125
-0.826125
-0.829628
-0.829628
-0.833126
-0.833126
-0.836608
-0.836608
-0.840081
-0.840081
-0.843546
-0.843546
-0.846995
-0.846995
-0.850438
-0.850438
-0.853868
-0.853868
-0.857288
-0.857288
-0.860698
-0.860698
-0.864093
-0.864093
-0.867485
-0.867485
-0.870863
-0.870863
-0.874226
-0.874226
-0.877584
-0.877584
-0.880929
-0.880929
-0.884259
-0.884259
-0.887585
-0.887585
-0.890897
-0.890897
-0.894198
-0.894198
-0.897486
-0.897486
-0.900764
-0.900764
-0.904033
-0.904033
-0.907290
-0.907290
-0.910535
-0.910535
-0.913774
-0.913774
-0.916995
-0.916995
-0.920203
-0.920203
-0.923408
-0.923408
-0.926599
-0.926599
-0.929777
-0.929777
-0.932946
-0.932946
-0.936103
-0.936103
-0.939246
-0.939246
-0.942382
-0.942382
-0.945504
-0.945504
-0.948615
-0.948615
-0.951718
-0.951718
-0.954804
-0.954804
-0.957880
-0.957880
-0.960951
-0.960951
-0.964005
-0.964005
-0.967045
-0.967045
-0.970078
-0.970078
-0.973098
-0.973098
-0.976103
-0.976103
-0.979102
-0.979102
-0.982089
-0.982089
-0.985064
-0.985064
-0.988026
-0.988026
-0.990974
-0.990974
-0.993909
-0.993909
-0.996838
-0.996838
-0.999755
-0.999755
-1.002658
-1.002658
-1.005550
-1.005550
-1.008432
-1.008432
-1.011299
-1.011299
-1.014152
-1.014152
-1.016999
-1.016999
-1.019832
-1.019832
-1.022652
-1.022652
-1.025459
-1.025459
-1.028257
-1.028257
-1.031041
-1.031041
-1.033813
-1.033813
-1.036575
-1.036575
-1.039323
-1.039323
-1.042057
-1.042057
-1.044782
-1.044782
-1.047496
-1.047496
-1.050193
-1.050193
-1.052878
-1.052878
-1.055557
-1.055557
-1.058223
-1.058223
-1.060873
-1.060873
-1.063509
-1.063509
-1.066135
-1.066135
-1.068748
-1.068748
-1.071348
-1.071348
-1.073937
-1.073937
-1.076514
-1.076514
-1.079078
-1.079078
-1.081628
-1.081628
-1.084169
-1.084169
-1.086695
-1.086695
-1.089207
-1.089207
-1.091706
-1.091706
-1.094196
-1.094196
-1.096674
-1.096674
-1.099135
-1.099135
-1.101583
-1.101583
-1.104022
-1.104022
-1.106448
-1.106448
-1.108860
-1.108860
-1.111255
-1.111255
-1.113641
-1.113641
-1.116015
-1.116015
-1.118376
-1.118376
-1.120722
-1.120722
-1.123056
-1.123056
-1.125378
-1.125378
-1.127685
-1.127685
-1.129978
-1.129978
-1.132259
-1.132259
-1.134532
-1.134532
-1.136789
-1.136789
-1.139030
-1.139030
-1.141256
-1.141256
-1.143471
-1.143471
-1.145675
-1.145675
-1.147865
-1.147865
-1.150039
-1.150039
-1.152199
-1.152199
-1.154349
-1.154349
-1.156485
-1.156485
-1.158607
-1.158607
-1.160715
-1.160715
-1.162808
-1.162808
-1.164891
-1.164891
-1.166958
-1.166958
-1.169011
-1.169011
-1.171050
-1.171050
-1.173075
-1.173075
-1.175090
-1.175090
-1.177090
-1.177090
-1.179075
-1.179075
-1.181046
-1.181046
-1.183003
-1.183003
-1.184948
-1.184948
-1.186880
-1.186880
-1.188796
-1.188796
-1.190694
-1.190694
-1.192578
-1.192578
-1.194450
-1.194450
-1.196312
-1.196312
-1.198158
-1.198158
-1.199990
-1.199990
-1.201807
-1.201807
-1.203607
-1.203607
-1.205395
-1.205395
-1.207170
-1.207170
-1.208930
-1.208930
-1.210675
-1.210675
-1.212405
-1.212405
-1.214120
-1.214120
-1.215824
-1.215824
-1.217511
-1.217511
-1.219184
-1.219184
-1.220842
-1.220842
-1.222484
-1.222484
-1.224112
-1.224112
-1.225725
-1.225725
-1.227326
-1.227326
-1.228913
-1.228913
-1.230483
-1.230483
-1.232037
-1.232037
-1.233576
-1.233576
-1.235099
-1.235099
-1.236608
-1.236608
-1.238104
-1.238104
-1.239585
-1.239585
-1.241051
-1.241051
-1.242502
-1.242502
-1.243937
-1.243937
-1.245355
-1.245355
-1.246757
-1.246757
-1.248146
-1.248146
-1.249520
-1.249520
-1.250879
-1.250879
-1.252222
-1.252222
-1.253549
-1.253549
-1.254860
-1.254860
-1.256156
-1.256156
-1.257435
-1.257435
-1.258701
-1.258701
-1.259951
-1.259951
-1.261186
-1.261186
-1.262406
-1.262406
-1.263609
-1.263609
-1.264796
-1.264796
-1.265967
-1.265967
-1.267123
-1.267123
-1.268262
-1.268262
-1.269386
-1.269386
-1.270495
-1.270495
-1.271588
-1.271588
-1.272663
-1.272663
-1.273722
-1.273722
-1.274763
-1.274763
-1.275789
-1.275789
-1.276798
-1.276798
-1.277791
-1.277791
-1.278767
-1.278767
-1.279727
-1.279727
-1.280672
-1.280672
-1.281602
-1.281602
-1.282515
-1.282515
-1.283412
-1.283412
-1.284292
-1.284292
-1.285155
-1.285155
-1.286001
-1.286001
-1.286830
-1.286830
-1.287642
-1.287642
-1.288437
-1.288437
-1.289215
-1.289215
-1.289975
-1.289975
-1.290719
-1.290719
-1.291446
-1.291446
-1.292156
-1.292156
-1.292851
-1.292851
-1.293528
-1.293528
-1.294188
-1.294188
-1.294830
-1.294830
-1.295455
-1.295455
-1.296063
-1.296063
-1.296653
-1.296653
-1.297226
-1.297226
-1.297781
-1.297781
-1.298319
-1.298319
-1.298839
-1.298839
-1.299341
-1.299341
-1.299826
-1.299826
-1.300292
-1.300292
-1.300742
-1.300742
-1.301173
-1.301173
-1.301586
-1.301586
-1.301982
-1.301982
-1.302359
-1.302359
-1.302718
-1.302718
-1.303059
-1.303059
-1.303382
-1.303382
-1.303687
-1.303687
-1.303974
-1.303974
-1.304243
-1.304243
-1.304494
-1.304494
-1.304727
-1.304727
-1.304941
-1.304941
-1.305136
-1.305136
-1.305313
-1.305313
-1.305471
-1.305471
-1.305611
-1.305611
-1.305732
-1.305732
-1.305834
-1.305834
-1.305917
-1.305917
-1.305981
-1.305981
-1.306027
-1.306027
-1.306054
-1.306054
-1.306060
-1.306060
0.000000
0.000000
0.000000
0.000000
0.000000
0.000000
0.000000
0.000000
0.000000
0.000000
0.000000
0.000000
0.000000
0.000000
0.000000
0.000000
0.000000
0.000000
0.000000
0.000000
0.000000
0.000000
0.000000
0.000000
0.000000
0.000000
0.000000
0.000000
0.000000
0.000000
0.000000
0.000000
0.000000
0.000000
0.000000
0.000000
0.000000
0.000000
0.000000
0.000000
0.000000
0.000000
0.000000
0.000000
0.000000
0.000000
0.000000
0.000000
0.000000
0.000000
0.000000
0.000000
0.000000
0.000000
0.000000
0.000000
0.000000
0.000000
0.000000
0.000000
0.000000
0.000000
0.000000
0.000000
0.000000
0.000000
0.000000
0.000000
0.000000
0.000000
0.000000
0.000000
0.000000
0.000000
0.000000
0.000000
0.000000
0.000000
0.000000
0.000000
0.000000
0.000000
0.000000
0.000000
0.000000
0.000000
0.000000
0.000000
0.000000
0.000000
0.000000
0.000000
0.000000
0.000000
0.000000
0.000000
0.000000
0.000000
0.000000
0.000000
0.000000
0.000000
0.000000
0.000000
0.000000
0.000000
0.000000
0.000000
0.000000
0.000000
0.000000
0.000000
0.000000
0.000000
0.000000
0.000000
0.000000
0.000000
0.000000
0.000000
0.000000
0.000000
0.000000
0.000000
0.000000
0.000000
0.000000
0.000000
0.000000
0.000000
0.000000
0.000000
0.000000
0.000000
0.000000
0.000000
0.000000
0.000000
0.000000
0.000000
0.000000
0.000000
0.000000
0.000000
0.000000
0.000000
0.000000
0.000000
0.000000
0.000000

