# vtk DataFile Version 2.0
MATLAB generated vtk file, WMC
ASCII
DATASET UNSTRUCTURED_GRID
<<<<<<< Updated upstream
POINTS 1026 double
0.000000 0.000000 0.000000 
0.097656 0.000000 0.000000 
0.000000 0.097656 0.000000 
0.097656 0.097656 0.000000 
0.000000 0.195312 0.000000 
0.097656 0.195312 0.000000 
0.000000 0.292969 0.000000 
0.097656 0.292969 0.000000 
0.000000 0.390625 0.000000 
0.097656 0.390625 0.000000 
0.000000 0.488281 0.000000 
0.097656 0.488281 0.000000 
0.000000 0.585938 0.000000 
0.097656 0.585938 0.000000 
0.000000 0.683594 0.000000 
0.097656 0.683594 0.000000 
0.000000 0.781250 0.000000 
0.097656 0.781250 0.000000 
0.000000 0.878906 0.000000 
0.097656 0.878906 0.000000 
0.000000 0.976562 0.000000 
0.097656 0.976562 0.000000 
0.000000 1.074219 0.000000 
0.097656 1.074219 0.000000 
0.000000 1.171875 0.000000 
0.097656 1.171875 0.000000 
0.000000 1.269531 0.000000 
0.097656 1.269531 0.000000 
0.000000 1.367188 0.000000 
0.097656 1.367188 0.000000 
0.000000 1.464844 0.000000 
0.097656 1.464844 0.000000 
0.000000 1.562500 0.000000 
0.097656 1.562500 0.000000 
0.000000 1.660156 0.000000 
0.097656 1.660156 0.000000 
0.000000 1.757812 0.000000 
0.097656 1.757812 0.000000 
0.000000 1.855469 0.000000 
0.097656 1.855469 0.000000 
0.000000 1.953125 0.000000 
0.097656 1.953125 0.000000 
0.000000 2.050781 0.000000 
0.097656 2.050781 0.000000 
0.000000 2.148438 0.000000 
0.097656 2.148438 0.000000 
0.000000 2.246094 0.000000 
0.097656 2.246094 0.000000 
0.000000 2.343750 0.000000 
0.097656 2.343750 0.000000 
0.000000 2.441406 0.000000 
0.097656 2.441406 0.000000 
0.000000 2.539062 0.000000 
0.097656 2.539062 0.000000 
0.000000 2.636719 0.000000 
0.097656 2.636719 0.000000 
0.000000 2.734375 0.000000 
0.097656 2.734375 0.000000 
0.000000 2.832031 0.000000 
0.097656 2.832031 0.000000 
0.000000 2.929688 0.000000 
0.097656 2.929688 0.000000 
0.000000 3.027344 0.000000 
0.097656 3.027344 0.000000 
0.000000 3.125000 0.000000 
0.097656 3.125000 0.000000 
0.000000 3.222656 0.000000 
0.097656 3.222656 0.000000 
0.000000 3.320312 0.000000 
0.097656 3.320312 0.000000 
0.000000 3.417969 0.000000 
0.097656 3.417969 0.000000 
0.000000 3.515625 0.000000 
0.097656 3.515625 0.000000 
0.000000 3.613281 0.000000 
0.097656 3.613281 0.000000 
0.000000 3.710938 0.000000 
0.097656 3.710938 0.000000 
0.000000 3.808594 0.000000 
0.097656 3.808594 0.000000 
0.000000 3.906250 0.000000 
0.097656 3.906250 0.000000 
0.000000 4.003906 0.000000 
0.097656 4.003906 0.000000 
0.000000 4.101562 0.000000 
0.097656 4.101562 0.000000 
0.000000 4.199219 0.000000 
0.097656 4.199219 0.000000 
0.000000 4.296875 0.000000 
0.097656 4.296875 0.000000 
0.000000 4.394531 0.000000 
0.097656 4.394531 0.000000 
0.000000 4.492188 0.000000 
0.097656 4.492188 0.000000 
0.000000 4.589844 0.000000 
0.097656 4.589844 0.000000 
0.000000 4.687500 0.000000 
0.097656 4.687500 0.000000 
0.000000 4.785156 0.000000 
0.097656 4.785156 0.000000 
0.000000 4.882812 0.000000 
0.097656 4.882812 0.000000 
0.000000 4.980469 0.000000 
0.097656 4.980469 0.000000 
0.000000 5.078125 0.000000 
0.097656 5.078125 0.000000 
0.000000 5.175781 0.000000 
0.097656 5.175781 0.000000 
0.000000 5.273438 0.000000 
0.097656 5.273438 0.000000 
0.000000 5.371094 0.000000 
0.097656 5.371094 0.000000 
0.000000 5.468750 0.000000 
0.097656 5.468750 0.000000 
0.000000 5.566406 0.000000 
0.097656 5.566406 0.000000 
0.000000 5.664062 0.000000 
0.097656 5.664062 0.000000 
0.000000 5.761719 0.000000 
0.097656 5.761719 0.000000 
0.000000 5.859375 0.000000 
0.097656 5.859375 0.000000 
0.000000 5.957031 0.000000 
0.097656 5.957031 0.000000 
0.000000 6.054688 0.000000 
0.097656 6.054688 0.000000 
0.000000 6.152344 0.000000 
0.097656 6.152344 0.000000 
0.000000 6.250000 0.000000 
0.097656 6.250000 0.000000 
0.000000 6.347656 0.000000 
0.097656 6.347656 0.000000 
0.000000 6.445312 0.000000 
0.097656 6.445312 0.000000 
0.000000 6.542969 0.000000 
0.097656 6.542969 0.000000 
0.000000 6.640625 0.000000 
0.097656 6.640625 0.000000 
0.000000 6.738281 0.000000 
0.097656 6.738281 0.000000 
0.000000 6.835938 0.000000 
0.097656 6.835938 0.000000 
0.000000 6.933594 0.000000 
0.097656 6.933594 0.000000 
0.000000 7.031250 0.000000 
0.097656 7.031250 0.000000 
0.000000 7.128906 0.000000 
0.097656 7.128906 0.000000 
0.000000 7.226562 0.000000 
0.097656 7.226562 0.000000 
0.000000 7.324219 0.000000 
0.097656 7.324219 0.000000 
0.000000 7.421875 0.000000 
0.097656 7.421875 0.000000 
0.000000 7.519531 0.000000 
0.097656 7.519531 0.000000 
0.000000 7.617188 0.000000 
0.097656 7.617188 0.000000 
0.000000 7.714844 0.000000 
0.097656 7.714844 0.000000 
0.000000 7.812500 0.000000 
0.097656 7.812500 0.000000 
0.000000 7.910156 0.000000 
0.097656 7.910156 0.000000 
0.000000 8.007812 0.000000 
0.097656 8.007812 0.000000 
0.000000 8.105469 0.000000 
0.097656 8.105469 0.000000 
0.000000 8.203125 0.000000 
0.097656 8.203125 0.000000 
0.000000 8.300781 0.000000 
0.097656 8.300781 0.000000 
0.000000 8.398438 0.000000 
0.097656 8.398438 0.000000 
0.000000 8.496094 0.000000 
0.097656 8.496094 0.000000 
0.000000 8.593750 0.000000 
0.097656 8.593750 0.000000 
0.000000 8.691406 0.000000 
0.097656 8.691406 0.000000 
0.000000 8.789062 0.000000 
0.097656 8.789062 0.000000 
0.000000 8.886719 0.000000 
0.097656 8.886719 0.000000 
0.000000 8.984375 0.000000 
0.097656 8.984375 0.000000 
0.000000 9.082031 0.000000 
0.097656 9.082031 0.000000 
0.000000 9.179688 0.000000 
0.097656 9.179688 0.000000 
0.000000 9.277344 0.000000 
0.097656 9.277344 0.000000 
0.000000 9.375000 0.000000 
0.097656 9.375000 0.000000 
0.000000 9.472656 0.000000 
0.097656 9.472656 0.000000 
0.000000 9.570312 0.000000 
0.097656 9.570312 0.000000 
0.000000 9.667969 0.000000 
0.097656 9.667969 0.000000 
0.000000 9.765625 0.000000 
0.097656 9.765625 0.000000 
0.000000 9.863281 0.000000 
0.097656 9.863281 0.000000 
0.000000 9.960938 0.000000 
0.097656 9.960938 0.000000 
0.000000 10.058594 0.000000 
0.097656 10.058594 0.000000 
0.000000 10.156250 0.000000 
0.097656 10.156250 0.000000 
0.000000 10.253906 0.000000 
0.097656 10.253906 0.000000 
0.000000 10.351562 0.000000 
0.097656 10.351562 0.000000 
0.000000 10.449219 0.000000 
0.097656 10.449219 0.000000 
0.000000 10.546875 0.000000 
0.097656 10.546875 0.000000 
0.000000 10.644531 0.000000 
0.097656 10.644531 0.000000 
0.000000 10.742188 0.000000 
0.097656 10.742188 0.000000 
0.000000 10.839844 0.000000 
0.097656 10.839844 0.000000 
0.000000 10.937500 0.000000 
0.097656 10.937500 0.000000 
0.000000 11.035156 0.000000 
0.097656 11.035156 0.000000 
0.000000 11.132812 0.000000 
0.097656 11.132812 0.000000 
0.000000 11.230469 0.000000 
0.097656 11.230469 0.000000 
0.000000 11.328125 0.000000 
0.097656 11.328125 0.000000 
0.000000 11.425781 0.000000 
0.097656 11.425781 0.000000 
0.000000 11.523438 0.000000 
0.097656 11.523438 0.000000 
0.000000 11.621094 0.000000 
0.097656 11.621094 0.000000 
0.000000 11.718750 0.000000 
0.097656 11.718750 0.000000 
0.000000 11.816406 0.000000 
0.097656 11.816406 0.000000 
0.000000 11.914062 0.000000 
0.097656 11.914062 0.000000 
0.000000 12.011719 0.000000 
0.097656 12.011719 0.000000 
0.000000 12.109375 0.000000 
0.097656 12.109375 0.000000 
0.000000 12.207031 0.000000 
0.097656 12.207031 0.000000 
0.000000 12.304688 0.000000 
0.097656 12.304688 0.000000 
0.000000 12.402344 0.000000 
0.097656 12.402344 0.000000 
0.000000 12.500000 0.000000 
0.097656 12.500000 0.000000 
0.000000 12.597656 0.000000 
0.097656 12.597656 0.000000 
0.000000 12.695312 0.000000 
0.097656 12.695312 0.000000 
0.000000 12.792969 0.000000 
0.097656 12.792969 0.000000 
0.000000 12.890625 0.000000 
0.097656 12.890625 0.000000 
0.000000 12.988281 0.000000 
0.097656 12.988281 0.000000 
0.000000 13.085938 0.000000 
0.097656 13.085938 0.000000 
0.000000 13.183594 0.000000 
0.097656 13.183594 0.000000 
0.000000 13.281250 0.000000 
0.097656 13.281250 0.000000 
0.000000 13.378906 0.000000 
0.097656 13.378906 0.000000 
0.000000 13.476562 0.000000 
0.097656 13.476562 0.000000 
0.000000 13.574219 0.000000 
0.097656 13.574219 0.000000 
0.000000 13.671875 0.000000 
0.097656 13.671875 0.000000 
0.000000 13.769531 0.000000 
0.097656 13.769531 0.000000 
0.000000 13.867188 0.000000 
0.097656 13.867188 0.000000 
0.000000 13.964844 0.000000 
0.097656 13.964844 0.000000 
0.000000 14.062500 0.000000 
0.097656 14.062500 0.000000 
0.000000 14.160156 0.000000 
0.097656 14.160156 0.000000 
0.000000 14.257812 0.000000 
0.097656 14.257812 0.000000 
0.000000 14.355469 0.000000 
0.097656 14.355469 0.000000 
0.000000 14.453125 0.000000 
0.097656 14.453125 0.000000 
0.000000 14.550781 0.000000 
0.097656 14.550781 0.000000 
0.000000 14.648438 0.000000 
0.097656 14.648438 0.000000 
0.000000 14.746094 0.000000 
0.097656 14.746094 0.000000 
0.000000 14.843750 0.000000 
0.097656 14.843750 0.000000 
0.000000 14.941406 0.000000 
0.097656 14.941406 0.000000 
0.000000 15.039062 0.000000 
0.097656 15.039062 0.000000 
0.000000 15.136719 0.000000 
0.097656 15.136719 0.000000 
0.000000 15.234375 0.000000 
0.097656 15.234375 0.000000 
0.000000 15.332031 0.000000 
0.097656 15.332031 0.000000 
0.000000 15.429688 0.000000 
0.097656 15.429688 0.000000 
0.000000 15.527344 0.000000 
0.097656 15.527344 0.000000 
0.000000 15.625000 0.000000 
0.097656 15.625000 0.000000 
0.000000 15.722656 0.000000 
0.097656 15.722656 0.000000 
0.000000 15.820312 0.000000 
0.097656 15.820312 0.000000 
0.000000 15.917969 0.000000 
0.097656 15.917969 0.000000 
0.000000 16.015625 0.000000 
0.097656 16.015625 0.000000 
0.000000 16.113281 0.000000 
0.097656 16.113281 0.000000 
0.000000 16.210938 0.000000 
0.097656 16.210938 0.000000 
0.000000 16.308594 0.000000 
0.097656 16.308594 0.000000 
0.000000 16.406250 0.000000 
0.097656 16.406250 0.000000 
0.000000 16.503906 0.000000 
0.097656 16.503906 0.000000 
0.000000 16.601562 0.000000 
0.097656 16.601562 0.000000 
0.000000 16.699219 0.000000 
0.097656 16.699219 0.000000 
0.000000 16.796875 0.000000 
0.097656 16.796875 0.000000 
0.000000 16.894531 0.000000 
[...]
POINT_DATA 1026
SCALARS u_x FLOAT 1
LOOKUP_TABLE default
0.000000
0.000000
0.000000
0.000000
0.000000
0.000000
0.000000
0.000000
0.000000
0.000000
0.000000
0.000000
0.000000
0.000000
0.000000
0.000000
0.000000
0.000000
0.000000
0.000000
0.000000
0.000000
0.000000
0.000000
0.000000
0.000000
0.000000
0.000000
0.000000
0.000000
0.000000
0.000000
0.000000
0.000000
0.000000
0.000000
0.000000
0.000000
0.000000
0.000000
0.000000
0.000000
0.000000
0.000000
0.000000
0.000000
0.000000
0.000000
0.000000
0.000000
0.000000
0.000000
0.000000
0.000000
0.000000
0.000000
0.000000
0.000000
0.000000
0.000000
0.000000
0.000000
0.000000
0.000000
0.000000
0.000000
0.000000
0.000000
0.000000
0.000000
0.000000
0.000000
0.000000
0.000000
0.000000
0.000000
0.000000
0.000000
0.000000
0.000000
0.000000
0.000000
0.000000
0.000000
0.000000
0.000000
0.000000
0.000000
0.000000
0.000000
0.000000
0.000000
0.000000
0.000000
0.000000
0.000000
0.000000
0.000000
0.000000
0.000000
0.000000
0.000000
0.000000
0.000000
0.000000
0.000000
0.000000
0.000000
0.000000
0.000000
0.000000
0.000000
0.000000
0.000000
0.000000
0.000000
0.000000
0.000000
0.000000
0.000000
0.000000
0.000000
0.000000
0.000000
0.000000
0.000000
0.000000
0.000000
0.000000
0.000000
0.000000
0.000000
0.000000
0.000000
0.000000
0.000000
0.000000
0.000000
0.000000
0.000000
0.000000
0.000000
0.000000
0.000000
0.000000
0.000000
0.000000
0.000000
0.000000
0.000000
0.000000
0.000000
0.000000
0.000000
0.000000
0.000000
0.000000
0.000000
0.000000
0.000000
0.000000
0.000000
0.000000
0.000000
0.000000
0.000000
0.000000
0.000000
0.000000
0.000000
0.000000
0.000000
0.000000
0.000000
0.000000
0.000000
0.000000
0.000000
0.000000
0.000000
0.000000
0.000000
0.000000
0.000000
0.000000
0.000000
0.000000
0.000000
0.000000
0.000000
0.000000
0.000000
0.000000
0.000000
0.000000
0.000000
0.000000
0.000000
0.000000
0.000000
0.000000
0.000000
0.000000
0.000000
0.000000
0.000000
0.000000
0.000000
0.000000
0.000000
0.000000
0.000000
0.000000
0.000000
0.000000
0.000000
0.000000
0.000000
0.000000
0.000000
0.000000
0.000000
0.000000
0.000000
0.000000
0.000000
0.000000
0.000000
0.000000
0.000000
0.000000
0.000000
0.000000
0.000000
0.000000
0.000000
0.000000
0.000000
0.000000
0.000000
0.000000
0.000000
0.000000
0.000000
0.000000
0.000000
0.000000
0.000000
0.000000
0.000000
0.000000
0.000000
0.000000
0.000000
0.000000
0.000000
0.000000
0.000000
0.000000
0.000000
0.000000
0.000000
0.000000
0.000000
0.000000
0.000000
0.000000
0.000000
0.000000
0.000000
0.000000
0.000000
0.000000
0.000000
0.000000
0.000000
0.000000
0.000000
0.000000
0.000000
0.000000
0.000000
0.000000
0.000000
0.000000
0.000000
0.000000
0.000000
0.000000
0.000000
0.000000
0.000000
0.000000
0.000000
0.000000
0.000000
0.000000
0.000000
0.000000
0.000000
0.000000
0.000000
0.000000
0.000000
0.000000
0.000000
0.000000
0.000000
0.000000
0.000000
0.000000
0.000000
0.000000
0.000000
0.000000
0.000000
0.000000
0.000000
0.000000
0.000000
0.000000
0.000000
0.000000
0.000000
0.000000
0.000000
0.000000
0.000000
0.000000
0.000000
0.000000
0.000000
0.000000
0.000000
0.000000
0.000000
0.000000
0.000000
0.000000
0.000000
0.000000
0.000000
0.000000
0.000000
0.000000
0.000000
0.000000
0.000000
0.000000
0.000000
0.000000
0.000000
0.000000
0.000000
0.000000
0.000000
0.000000
0.000000
0.000000
0.000000
0.000000
0.000000
0.000000
0.000000
0.000000
0.000000
0.000000
0.000000
0.000000
0.000000
0.000000
0.000000
0.000000
0.000000
0.000000
0.000000
0.000000
0.000000
0.000000
0.000000
0.000000
0.000000
0.000000
0.000000
0.000000
0.000000
0.000000
0.000000
0.000000
0.000000
0.000000
0.000000
0.000000
0.000000
0.000000
0.000000
0.000000
0.000000
0.000000
0.000000
0.000000
0.000000
0.000000
0.000000
0.000000
0.000000
0.000000
0.000000
0.000000
0.000000
0.000000
0.000000
0.000000
0.000000
0.000000
0.000000
0.000000
0.000000
0.000000
0.000000
0.000000
0.000000
0.000000
0.000000
0.000000
0.000000
0.000000
0.000000
0.000000
0.000000
0.000000
0.000000
0.000000
0.000000
0.000000
0.000000
0.000000
0.000000
0.000000
0.000000
0.000000
0.000000
0.000000
0.000000
0.000000
0.000000
0.000000
0.000000
0.000000
0.000000
0.000000
0.000000
0.000000
0.000000
0.000000
0.000000
0.000000
0.000000
0.000000
0.000000
0.000000
0.000000
0.000000
0.000000
0.000000
0.000000
0.000000
0.000000
0.000000
0.000000
0.000000
0.000000
0.000000
0.000000
0.000000
0.000000
0.000000
0.000000
0.000000
0.000000
0.000000
0.000000
0.000000
0.000000
0.000000
0.000000
0.000000
0.000000
0.000000
0.000000
0.000000
0.000000
0.000000
0.000000
0.000000
0.000000
0.000000
0.000000
0.000000
0.000000
0.000000
0.000000
0.000000
0.000000
0.000000
0.000000
0.000000
0.000000
0.000000
0.000000
0.000000
0.000000
0.000000
0.000000
0.000000
0.000000
0.000000
0.000000
0.000000
0.000000
0.000000
0.000000
0.000000
0.000000
0.000000
0.000000
0.000000
0.000000
0.000000
0.000000
0.000000
0.000000
0.000000
0.000000
0.000000
0.000000
0.000000
0.000000
0.000000
0.000000
0.000000
0.000000
0.000000
0.000000
0.000000
0.000000
0.000000
0.000000
0.000000
0.000000
0.000000
0.000000
0.000000
0.000000
0.000000
0.000000
0.000000
0.000000
0.000000
0.000000
0.000000
0.000000
0.000000
0.000000
0.000000
0.000000
0.000000
0.000000
0.000000
0.000000
0.000000
0.000000
0.000000
0.000000
0.000000
0.000000
0.000000
0.000000
0.000000
0.000000
0.000000
0.000000
0.000000
0.000000
0.000000
0.000000
0.000000
0.000000
0.000000
0.000000
0.000000
0.000000
0.000000
0.000000
0.000000
0.000000
0.000000
0.000000
0.000000
0.000000
0.000000
0.000000
0.000000
0.000000
0.000000
0.000000
0.000000
0.000000
0.000000
0.000000
0.000000
0.000000
0.000000
0.000000
0.000000
0.000000
0.000000
0.000000
0.000000
0.000000
0.000000
0.000000
0.000000
0.000000
0.000000
0.000000
0.000000
0.000000
0.000000
0.000000
0.000000
0.000000
0.000000
0.000000
0.000000
0.000000
0.000000
0.000000
0.000000
0.000000
0.000000
0.000000
0.000000
0.000000
0.000000
0.000000
0.000000
0.000000
0.000000
0.000000
0.000000
0.000000
0.000000
0.000000
0.000000
0.000000
0.000000
0.000000
0.000000
0.000000
0.000000
0.000000
0.000000
0.000000
0.000000
0.000000
0.000000
0.000000
0.000000
0.000000
0.000000
0.000000
0.000000
0.000000
0.000000
0.000000
0.000000
0.000000
0.000000
0.000000
0.000000
0.000000
0.000000
0.000000
0.000000
0.000000
0.000000
0.000000
0.000000
0.000000
0.000000
0.000000
0.000000
0.000000
0.000000
0.000000
0.000000
0.000000
0.000000
0.000000
0.000000
0.000000
0.000000
0.000000
0.000000
0.000000
0.000000
0.000000
0.000000
0.000000
0.000000
0.000000
0.000000
0.000000
0.000000
0.000000
0.000000
0.000000
0.000000
0.000000
0.000000
0.000000
0.000000
0.000000
0.000000
0.000000
0.000000
0.000000
0.000000
0.000000
0.000000
0.000000
0.000000
0.000000
0.000000
0.000000
0.000000
0.000000
0.000000
0.000000
0.000000
0.000000
0.000000
0.000000
0.000000
0.000000
0.000000
0.000000
0.000000
0.000000
0.000000
0.000000
0.000000
0.000000
0.000000
0.000000
0.000000
0.000000
0.000000
0.000000
0.000000
0.000000
0.000000
0.000000
0.000000
0.000000
0.000000
0.000000
0.000000
0.000000
0.000000
0.000000
0.000000
0.000000
0.000000
0.000000
0.000000
0.000000
0.000000
0.000000
0.000000
0.000000
0.000000
0.000000
0.000000
0.000000
0.000000
0.000000
0.000000
0.000000
0.000000
0.000000
0.000000
0.000000
0.000000
0.000000
0.000000
0.000000
0.000000
0.000000
0.000000
0.000000
0.000000
0.000000
0.000000
0.000000
0.000000
0.000000
0.000000
0.000000
0.000000
0.000000
0.000000
0.000000
0.000000
0.000000
0.000000
0.000000
0.000000
0.000000
0.000000
0.000000
0.000000
0.000000
0.000000
0.000000
0.000000
0.000000
0.000000
0.000000
0.000000
0.000000
0.000000
0.000000
0.000000
0.000000
0.000000
0.000000
0.000000
0.000000
0.000000
0.000000
0.000000
0.000000
0.000000
0.000000
0.000000
0.000000
0.000000
0.000000
0.000000
0.000000
0.000000
0.000000
0.000000
0.000000
0.000000
0.000000
0.000000
0.000000
0.000000
0.000000
0.000000
0.000000
0.000000
0.000000
0.000000
0.000000
0.000000
0.000000
0.000000
0.000000
0.000000
0.000000
0.000000
0.000000
0.000000
0.000000
0.000000
0.000000
0.000000
0.000000
0.000000
0.000000
0.000000
0.000000
0.000000
0.000000
0.000000
0.000000
0.000000
0.000000
0.000000
0.000000
0.000000
0.000000
0.000000
0.000000
0.000000
0.000000
0.000000
0.000000
0.000000
0.000000
0.000000
0.000000
0.000000
0.000000
0.000000
0.000000
0.000000
0.000000
0.000000
0.000000
0.000000
0.000000
0.000000
0.000000
0.000000
0.000000
0.000000
0.000000
0.000000
0.000000
0.000000
0.000000
0.000000
0.000000
0.000000
0.000000
0.000000
0.000000
0.000000
0.000000
0.000000
0.000000
0.000000
0.000000
0.000000
0.000000
0.000000
0.000000
0.000000
0.000000
0.000000
0.000000
0.000000
0.000000
0.000000
0.000000
0.000000
0.000000
0.000000
0.000000
0.000000
0.000000
0.000000
0.000000
0.000000
0.000000
0.000000
0.000000
0.000000
0.000000
0.000000
0.000000
0.000000
0.000000
0.000000
0.000000
0.000000
0.000000
0.000000
0.000000
0.000000
0.000000
0.000000
0.000000
0.000000
0.000000
0.000000
0.000000
0.000000
0.000000
0.000000
0.000000
0.000000
0.000000
0.000000
0.000000
0.000000
0.000000
0.000000
0.000000
0.000000
0.000000
0.000000
0.000000
0.000000
0.000000
0.000000
0.000000
0.000000
0.000000
0.000000
0.000000
0.000000
0.000000
=======

POINT_DATA 18
SCALARS u_x FLOAT 1
LOOKUP_TABLE default
>>>>>>> Stashed changes
0.000000
0.000000
0.000000
0.000000
0.000000
0.000000
0.000000
0.000000
0.000000
0.000000
0.000000
0.000000
0.000000
0.000000
0.000000
0.000000
0.000000
0.000000

SCALARS u_y FLOAT 1
LOOKUP_TABLE default
0.000000
0.000000
<<<<<<< Updated upstream
-0.004744
-0.004744
-0.009481
-0.009481
-0.014212
-0.014212
-0.018934
-0.018934
-0.023650
-0.023650
-0.028360
-0.028360
-0.033061
-0.033061
-0.037759
-0.037759
-0.042448
-0.042448
-0.047128
-0.047128
-0.051804
-0.051804
-0.056472
-0.056472
-0.061133
-0.061133
-0.065789
-0.065789
-0.070435
-0.070435
-0.075075
-0.075075
-0.079707
-0.079707
-0.084335
-0.084335
-0.088954
-0.088954
-0.093568
-0.093568
-0.098172
-0.098172
-0.102769
-0.102769
-0.107362
-0.107362
-0.111945
-0.111945
-0.116521
-0.116521
-0.121094
-0.121094
-0.125652
-0.125652
-0.130213
-0.130213
-0.134760
-0.134760
-0.139301
-0.139301
-0.143837
-0.143837
-0.148360
-0.148360
-0.152882
-0.152882
-0.157397
-0.157397
-0.161899
-0.161899
-0.166398
-0.166398
-0.170889
-0.170889
-0.175374
-0.175374
-0.179851
-0.179851
-0.184318
-0.184318
-0.188781
-0.188781
-0.193236
-0.193236
-0.197683
-0.197683
-0.202125
-0.202125
-0.206555
-0.206555
-0.210983
-0.210983
-0.215400
-0.215400
-0.219809
-0.219809
-0.224214
-0.224214
-0.228609
-0.228609
-0.232997
-0.232997
-0.237377
-0.237377
-0.241750
-0.241750
-0.246117
-0.246117
-0.250475
-0.250475
-0.254825
-0.254825
-0.259169
-0.259169
-0.263506
-0.263506
-0.267833
-0.267833
-0.272154
-0.272154
-0.276468
-0.276468
-0.280774
-0.280774
-0.285072
-0.285072
-0.289360
-0.289360
-0.293646
-0.293646
-0.297921
-0.297921
-0.302187
-0.302187
-0.306448
-0.306448
-0.310699
-0.310699
-0.314941
-0.314941
-0.319179
-0.319179
-0.323412
-0.323412
-0.327628
-0.327628
-0.331844
-0.331844
-0.336050
-0.336050
-0.340247
-0.340247
-0.344436
-0.344436
-0.348620
-0.348620
-0.352794
-0.352794
-0.356959
-0.356959
-0.361119
-0.361119
-0.365270
-0.365270
-0.369415
-0.369415
-0.373548
-0.373548
-0.377675
-0.377675
-0.381794
-0.381794
-0.385906
-0.385906
-0.390007
-0.390007
-0.394104
-0.394104
-0.398190
-0.398190
-0.402271
-0.402271
-0.406340
-0.406340
-0.410406
-0.410406
-0.414457
-0.414457
-0.418505
-0.418505
-0.422545
-0.422545
-0.426575
-0.426575
-0.430597
-0.430597
-0.434613
-0.434613
-0.438617
-0.438617
-0.442617
-0.442617
-0.446607
-0.446607
-0.450587
-0.450587
-0.454564
-0.454564
-0.458527
-0.458527
-0.462480
-0.462480
-0.466433
-0.466433
-0.470373
-0.470373
-0.474304
-0.474304
-0.478228
-0.478228
-0.482141
-0.482141
-0.486051
-0.486051
-0.489947
-0.489947
-0.493838
-0.493838
-0.497723
-0.497723
-0.501591
-0.501591
-0.505459
-0.505459
-0.509314
-0.509314
-0.513162
-0.513162
-0.517002
-0.517002
-0.520832
-0.520832
-0.524655
-0.524655
-0.528469
-0.528469
-0.532273
-0.532273
-0.536071
-0.536071
-0.539857
-0.539857
-0.543639
-0.543639
-0.547409
-0.547409
-0.551169
-0.551169
-0.554923
-0.554923
-0.558668
-0.558668
-0.562405
-0.562405
-0.566128
-0.566128
-0.569850
-0.569850
-0.573561
-0.573561
-0.577259
-0.577259
-0.580955
-0.580955
-0.584634
-0.584634
-0.588312
-0.588312
-0.591972
-0.591972
-0.595632
-0.595632
-0.599279
-0.599279
-0.602917
-0.602917
-0.606549
-0.606549
-0.610168
-0.610168
-0.613782
-0.613782
-0.617381
-0.617381
-0.620980
-0.620980
-0.624562
-0.624562
-0.628139
-0.628139
-0.631703
-0.631703
-0.635263
-0.635263
-0.638810
-0.638810
-0.642349
-0.642349
-0.645879
-0.645879
-0.649403
-0.649403
-0.652916
-0.652916
-0.656415
-0.656415
-0.659909
-0.659909
-0.663392
-0.663392
-0.666871
-0.666871
-0.670332
-0.670332
-0.673790
-0.673790
-0.677235
-0.677235
-0.680675
-0.680675
-0.684102
-0.684102
-0.687521
-0.687521
-0.690930
-0.690930
-0.694331
-0.694331
-0.697719
-0.697719
-0.701104
-0.701104
-0.704473
-0.704473
-0.707835
-0.707835
-0.711184
-0.711184
-0.714532
-0.714532
-0.717863
-0.717863
-0.721188
-0.721188
-0.724500
-0.724500
-0.727806
-0.727806
-0.731102
-0.731102
-0.734387
-0.734387
-0.737661
-0.737661
-0.740927
-0.740927
-0.744182
-0.744182
-0.747431
-0.747431
-0.750665
-0.750665
-0.753889
-0.753889
-0.757109
-0.757109
-0.760313
-0.760313
-0.763515
-0.763515
-0.766695
-0.766695
-0.769875
-0.769875
-0.773041
-0.773041
-0.776199
-0.776199
-0.779345
-0.779345
-0.782483
-0.782483
-0.785610
-0.785610
-0.788726
-0.788726
-0.791834
-0.791834
-0.794927
-0.794927
-0.798019
-0.798019
-0.801092
-0.801092
-0.804159
-0.804159
-0.807215
-0.807215
-0.810260
-0.810260
-0.813299
-0.813299
-0.816323
-0.816323
-0.819337
-0.819337
-0.822339
-0.822339
-0.825334
-0.825334
-0.828319
-0.828319
-0.831295
-0.831295
-0.834257
-0.834257
-0.837206
-0.837206
-0.840152
-0.840152
-0.843080
-0.843080
-0.846001
-0.846001
-0.848915
-0.848915
-0.851808
-0.851808
-0.854701
-0.854701
-0.857580
-0.857580
-0.860447
-0.860447
-0.863306
-0.863306
-0.866151
-0.866151
-0.868988
-0.868988
-0.871812
-0.871812
-0.874627
-0.874627
-0.877430
-0.877430
-0.880220
-0.880220
-0.883007
-0.883007
-0.885778
-0.885778
-0.888535
-0.888535
-0.891286
-0.891286
-0.894022
-0.894022
-0.896748
-0.896748
-0.899468
-0.899468
-0.902171
-0.902171
-0.904865
-0.904865
-0.907550
-0.907550
-0.910219
-0.910219
-0.912881
-0.912881
-0.915531
-0.915531
-0.918171
-0.918171
-0.920798
-0.920798
-0.923409
-0.923409
-0.926013
-0.926013
-0.928610
-0.928610
-0.931189
-0.931189
-0.933760
-0.933760
-0.936323
-0.936323
-0.938865
-0.938865
-0.941400
-0.941400
-0.943928
-0.943928
-0.946440
-0.946440
-0.948941
-0.948941
-0.951432
-0.951432
-0.953910
-0.953910
-0.956376
-0.956376
-0.958832
-0.958832
-0.961274
-0.961274
-0.963706
-0.963706
-0.966127
-0.966127
-0.968533
-0.968533
-0.970929
-0.970929
-0.973317
-0.973317
-0.975688
-0.975688
-0.978045
-0.978045
-0.980396
-0.980396
-0.982734
-0.982734
-0.985054
-0.985054
-0.987368
-0.987368
-0.989674
-0.989674
-0.991963
-0.991963
-0.994237
-0.994237
-0.996500
-0.996500
-0.998753
-0.998753
-1.000991
-1.000991
-1.003219
-1.003219
-1.005435
-1.005435
-1.007638
-1.007638
-1.009831
-1.009831
-1.012010
-1.012010
-1.014172
-1.014172
-1.016321
-1.016321
-1.018464
-1.018464
-1.020595
-1.020595
-1.022710
-1.022710
-1.024810
-1.024810
-1.026904
-1.026904
-1.028985
-1.028985
-1.031047
-1.031047
-1.033097
-1.033097
-1.035140
-1.035140
-1.037168
-1.037168
-1.039182
-1.039182
-1.041180
-1.041180
-1.043171
-1.043171
-1.045147
-1.045147
-1.047109
-1.047109
-1.049058
-1.049058
-1.050995
-1.050995
-1.052919
-1.052919
-1.054829
-1.054829
-1.056724
-1.056724
-1.058611
-1.058611
-1.060481
-1.060481
-1.062337
-1.062337
-1.064179
-1.064179
-1.066012
-1.066012
-1.067835
-1.067835
-1.069640
-1.069640
-1.071428
-1.071428
-1.073202
-1.073202
-1.074968
-1.074968
-1.076720
-1.076720
-1.078458
-1.078458
-1.080177
-1.080177
-1.081885
-1.081885
-1.083584
-1.083584
-1.085268
-1.085268
-1.086939
-1.086939
-1.088594
-1.088594
-1.090233
-1.090233
-1.091859
-1.091859
-1.093470
-1.093470
-1.095068
-1.095068
-1.096652
-1.096652
-1.098223
-1.098223
-1.099782
-1.099782
-1.101324
-1.101324
-1.102852
-1.102852
-1.104365
-1.104365
-1.105863
-1.105863
-1.107351
-1.107351
-1.108825
-1.108825
-1.110282
-1.110282
-1.111723
-1.111723
-1.113149
-1.113149
-1.114560
-1.114560
-1.115962
-1.115962
-1.117348
-1.117348
-1.118720
-1.118720
-1.120075
-1.120075
-1.121413
-1.121413
-1.122737
-1.122737
-1.124048
-1.124048
-1.125346
-1.125346
-1.126628
-1.126628
-1.127895
-1.127895
-1.129147
-1.129147
-1.130381
-1.130381
-1.131598
-1.131598
-1.132805
-1.132805
-1.133997
-1.133997
-1.135173
-1.135173
-1.136334
-1.136334
-1.137479
-1.137479
-1.138609
-1.138609
-1.139723
-1.139723
-1.140821
-1.140821
-1.141905
-1.141905
-1.142973
-1.142973
-1.144026
-1.144026
-1.145062
-1.145062
-1.146083
-1.146083
-1.147087
-1.147087
-1.148076
-1.148076
-1.149048
-1.149048
-1.150007
-1.150007
-1.150952
-1.150952
-1.151879
-1.151879
-1.152789
-1.152789
-1.153682
-1.153682
-1.154559
-1.154559
-1.155420
-1.155420
-1.156264
-1.156264
-1.157092
-1.157092
-1.157903
-1.157903
-1.158698
-1.158698
-1.159480
-1.159480
-1.160245
-1.160245
-1.160993
-1.160993
-1.161724
-1.161724
-1.162438
-1.162438
-1.163135
-1.163135
-1.163814
-1.163814
-1.164476
-1.164476
-1.165121
-1.165121
-1.165749
-1.165749
-1.166360
-1.166360
-1.166954
-1.166954
-1.167531
-1.167531
-1.168093
-1.168093
-1.168639
-1.168639
-1.169167
-1.169167
-1.169677
-1.169677
-1.170171
-1.170171
-1.170646
-1.170646
-1.171104
-1.171104
-1.171545
-1.171545
-1.171968
-1.171968
-1.172373
-1.172373
-1.172761
-1.172761
-1.173131
-1.173131
-1.173483
-1.173483
-1.173816
-1.173816
-1.174132
-1.174132
-1.174429
-1.174429
-1.174707
-1.174707
-1.174967
-1.174967
-1.175209
-1.175209
-1.175433
-1.175433
-1.175639
-1.175639
-1.175826
-1.175826
-1.175995
-1.175995
-1.176145
-1.176145
-1.176277
-1.176277
-1.176391
-1.176391
-1.176485
-1.176485
-1.176561
-1.176561
-1.176618
-1.176618
-1.176656
-1.176656
-1.176676
-1.176676
-1.176673
-1.176673
0.000000
0.000000
0.000000
0.000000
0.000000
0.000000
0.000000
0.000000
0.000000
0.000000
0.000000
0.000000
0.000000
0.000000
0.000000
0.000000
0.000000
0.000000
0.000000
0.000000
0.000000
0.000000
0.000000
0.000000
0.000000
0.000000
0.000000
0.000000
0.000000
0.000000
0.000000
0.000000
0.000000
0.000000
0.000000
0.000000
0.000000
0.000000
0.000000
0.000000
0.000000
0.000000
0.000000
0.000000
0.000000
0.000000
0.000000
0.000000
0.000000
0.000000
0.000000
0.000000
0.000000
0.000000
0.000000
0.000000
0.000000
0.000000
0.000000
0.000000
0.000000
0.000000
0.000000
0.000000
0.000000
0.000000
0.000000
0.000000
0.000000
0.000000
0.000000
0.000000
0.000000
0.000000
0.000000
0.000000
0.000000
0.000000
0.000000
0.000000
0.000000
0.000000
0.000000
0.000000
0.000000
0.000000
0.000000
0.000000
0.000000
0.000000
0.000000
0.000000
0.000000
0.000000
0.000000
0.000000
0.000000
0.000000
0.000000
0.000000
0.000000
0.000000
0.000000
0.000000
0.000000
0.000000
0.000000
0.000000
0.000000
0.000000
0.000000
0.000000
0.000000
0.000000
0.000000
0.000000
0.000000
0.000000
0.000000
0.000000
0.000000
0.000000
0.000000
0.000000
0.000000
0.000000
0.000000
0.000000
0.000000
0.000000
0.000000
0.000000
0.000000
0.000000
0.000000
0.000000
0.000000
0.000000
0.000000
0.000000
0.000000
0.000000
0.000000
0.000000
0.000000
0.000000
0.000000
0.000000
0.000000
0.000000
0.000000
0.000000
0.000000
0.000000
0.000000
0.000000
0.000000
0.000000
0.000000
0.000000
0.000000
0.000000
0.000000
0.000000
0.000000
0.000000
0.000000
0.000000
0.000000
0.000000
0.000000
0.000000
0.000000
0.000000
=======
-0.293384
-0.293384
-0.550371
-0.550371
-0.770625
-0.770625
-0.956655
-0.956655
-1.090569
-1.090569
-1.169021
-1.169021
-1.181633
-1.181633
>>>>>>> Stashed changes
0.000000
0.000000

