# vtk DataFile Version 2.0
MATLAB generated vtk file, WMC
ASCII
DATASET UNSTRUCTURED_GRID
POINTS 130 double
0.000000 0.000000 0.000000 
0.781250 0.000000 0.000000 
0.000000 0.781250 0.000000 
0.781250 0.781250 0.000000 
0.000000 1.562500 0.000000 
0.781250 1.562500 0.000000 
0.000000 2.343750 0.000000 
0.781250 2.343750 0.000000 
0.000000 3.125000 0.000000 
0.781250 3.125000 0.000000 
0.000000 3.906250 0.000000 
0.781250 3.906250 0.000000 
0.000000 4.687500 0.000000 
0.781250 4.687500 0.000000 
0.000000 5.468750 0.000000 
0.781250 5.468750 0.000000 
0.000000 6.250000 0.000000 
0.781250 6.250000 0.000000 
0.000000 7.031250 0.000000 
0.781250 7.031250 0.000000 
0.000000 7.812500 0.000000 
0.781250 7.812500 0.000000 
0.000000 8.593750 0.000000 
0.781250 8.593750 0.000000 
0.000000 9.375000 0.000000 
0.781250 9.375000 0.000000 
0.000000 10.156250 0.000000 
0.781250 10.156250 0.000000 
0.000000 10.937500 0.000000 
0.781250 10.937500 0.000000 
0.000000 11.718750 0.000000 
0.781250 11.718750 0.000000 
0.000000 12.500000 0.000000 
0.781250 12.500000 0.000000 
0.000000 13.281250 0.000000 
0.781250 13.281250 0.000000 
0.000000 14.062500 0.000000 
0.781250 14.062500 0.000000 
0.000000 14.843750 0.000000 
0.781250 14.843750 0.000000 
0.000000 15.625000 0.000000 
0.781250 15.625000 0.000000 
0.000000 16.406250 0.000000 
0.781250 16.406250 0.000000 
0.000000 17.187500 0.000000 
0.781250 17.187500 0.000000 
0.000000 17.968750 0.000000 
0.781250 17.968750 0.000000 
0.000000 18.750000 0.000000 
0.781250 18.750000 0.000000 
0.000000 19.531250 0.000000 
0.781250 19.531250 0.000000 
0.000000 20.312500 0.000000 
0.781250 20.312500 0.000000 
0.000000 21.093750 0.000000 
0.781250 21.093750 0.000000 
0.000000 21.875000 0.000000 
0.781250 21.875000 0.000000 
0.000000 22.656250 0.000000 
0.781250 22.656250 0.000000 
0.000000 23.437500 0.000000 
0.781250 23.437500 0.000000 
0.000000 24.218750 0.000000 
0.781250 24.218750 0.000000 
0.000000 25.000000 0.000000 
0.781250 25.000000 0.000000 
0.000000 25.781250 0.000000 
0.781250 25.781250 0.000000 
0.000000 26.562500 0.000000 
0.781250 26.562500 0.000000 
0.000000 27.343750 0.000000 
0.781250 27.343750 0.000000 
0.000000 28.125000 0.000000 
0.781250 28.125000 0.000000 
0.000000 28.906250 0.000000 
0.781250 28.906250 0.000000 
0.000000 29.687500 0.000000 
0.781250 29.687500 0.000000 
0.000000 30.468750 0.000000 
0.781250 30.468750 0.000000 
0.000000 31.250000 0.000000 
0.781250 31.250000 0.000000 
0.000000 32.031250 0.000000 
0.781250 32.031250 0.000000 
0.000000 32.812500 0.000000 
0.781250 32.812500 0.000000 
0.000000 33.593750 0.000000 
0.781250 33.593750 0.000000 
0.000000 34.375000 0.000000 
0.781250 34.375000 0.000000 
0.000000 35.156250 0.000000 
0.781250 35.156250 0.000000 
0.000000 35.937500 0.000000 
0.781250 35.937500 0.000000 
0.000000 36.718750 0.000000 
0.781250 36.718750 0.000000 
0.000000 37.500000 0.000000 
0.781250 37.500000 0.000000 
0.000000 38.281250 0.000000 
0.781250 38.281250 0.000000 
0.000000 39.062500 0.000000 
0.781250 39.062500 0.000000 
0.000000 39.843750 0.000000 
0.781250 39.843750 0.000000 
0.000000 40.625000 0.000000 
0.781250 40.625000 0.000000 
0.000000 41.406250 0.000000 
0.781250 41.406250 0.000000 
0.000000 42.187500 0.000000 
0.781250 42.187500 0.000000 
0.000000 42.968750 0.000000 
0.781250 42.968750 0.000000 
0.000000 43.750000 0.000000 
0.781250 43.750000 0.000000 
0.000000 44.531250 0.000000 
0.781250 44.531250 0.000000 
0.000000 45.312500 0.000000 
0.781250 45.312500 0.000000 
0.000000 46.093750 0.000000 
0.781250 46.093750 0.000000 
0.000000 46.875000 0.000000 
0.781250 46.875000 0.000000 
0.000000 47.656250 0.000000 
0.781250 47.656250 0.000000 
0.000000 48.437500 0.000000 
0.781250 48.437500 0.000000 
0.000000 49.218750 0.000000 
0.781250 49.218750 0.000000 
0.000000 50.000000 0.000000 
0.781250 50.000000 0.000000 

CELLS 64 320
4 0 1 2 3
4 2 3 4 5
4 4 5 6 7
4 6 7 8 9
4 8 9 10 11
4 10 11 12 13
4 12 13 14 15
4 14 15 16 17
4 16 17 18 19
4 18 19 20 21
4 20 21 22 23
4 22 23 24 25
4 24 25 26 27
4 26 27 28 29
4 28 29 30 31
4 30 31 32 33
4 32 33 34 35
4 34 35 36 37
4 36 37 38 39
4 38 39 40 41
4 40 41 42 43
4 42 43 44 45
4 44 45 46 47
4 46 47 48 49
4 48 49 50 51
4 50 51 52 53
4 52 53 54 55
4 54 55 56 57
4 56 57 58 59
4 58 59 60 61
4 60 61 62 63
4 62 63 64 65
4 64 65 66 67
4 66 67 68 69
4 68 69 70 71
4 70 71 72 73
4 72 73 74 75
4 74 75 76 77
4 76 77 78 79
4 78 79 80 81
4 80 81 82 83
4 82 83 84 85
4 84 85 86 87
4 86 87 88 89
4 88 89 90 91
4 90 91 92 93
4 92 93 94 95
4 94 95 96 97
4 96 97 98 99
4 98 99 100 101
4 100 101 102 103
4 102 103 104 105
4 104 105 106 107
4 106 107 108 109
4 108 109 110 111
4 110 111 112 113
4 112 113 114 115
4 114 115 116 117
4 116 117 118 119
4 118 119 120 121
4 120 121 122 123
4 122 123 124 125
4 124 125 126 127
4 126 127 128 129

CELL_TYPES 64
8
8
8
8
8
8
8
8
8
8
8
8
8
8
8
8
8
8
8
8
8
8
8
8
8
8
8
8
8
8
8
8
8
8
8
8
8
8
8
8
8
8
8
8
8
8
8
8
8
8
8
8
8
8
8
8
8
8
8
8
8
8
8
8

POINT_DATA 130
SCALARS u_x FLOAT 1
LOOKUP_TABLE default
0.000000
0.000000
0.000000
0.000000
0.000000
0.000000
0.000000
0.000000
0.000000
0.000000
0.000000
0.000000
0.000000
0.000000
0.000000
0.000000
0.000000
0.000000
0.000000
0.000000
0.000000
0.000000
0.000000
0.000000
0.000000
0.000000
0.000000
0.000000
0.000000
0.000000
0.000000
0.000000
0.000000
0.000000
0.000000
0.000000
0.000000
0.000000
0.000000
0.000000
0.000000
0.000000
0.000000
0.000000
0.000000
0.000000
0.000000
0.000000
0.000000
0.000000
0.000000
0.000000
0.000000
0.000000
0.000000
0.000000
0.000000
0.000000
0.000000
0.000000
0.000000
0.000000
0.000000
0.000000
0.000000
0.000000
0.000000
0.000000
0.000000
0.000000
0.000000
0.000000
0.000000
0.000000
0.000000
0.000000
0.000000
0.000000
0.000000
0.000000
0.000000
0.000000
0.000000
0.000000
0.000000
0.000000
0.000000
0.000000
0.000000
0.000000
0.000000
0.000000
0.000000
0.000000
0.000000
0.000000
0.000000
0.000000
0.000000
0.000000
0.000000
0.000000
0.000000
0.000000
0.000000
0.000000
0.000000
0.000000
0.000000
0.000000
0.000000
0.000000
0.000000
0.000000
0.000000
0.000000
0.000000
0.000000
0.000000
0.000000
0.000000
0.000000
0.000000
0.000000
0.000000
0.000000
0.000000
0.000000
0.000000
0.000000

SCALARS u_y FLOAT 1
LOOKUP_TABLE default
0.000000
0.000000
-0.037829
-0.037829
-0.075123
-0.075123
-0.112054
-0.112054
-0.148422
-0.148422
-0.184310
-0.184310
-0.219892
-0.219892
-0.254875
-0.254875
-0.289355
-0.289355
-0.323538
-0.323538
-0.356987
-0.356987
-0.389925
-0.389925
-0.422647
-0.422647
-0.454709
-0.454709
-0.486105
-0.486105
-0.517143
-0.517143
-0.547518
-0.547518
-0.577192
-0.577192
-0.606541
-0.606541
-0.635337
-0.635337
-0.663427
-0.663427
-0.690952
-0.690952
-0.717868
-0.717868
-0.744235
-0.744235
-0.769899
-0.769899
-0.794825
-0.794825
-0.819518
-0.819518
-0.843157
-0.843157
-0.866360
-0.866360
-0.888605
-0.888605
-0.910188
-0.910188
-0.931278
-0.931278
-0.951429
-0.951429
-0.970988
-0.970988
-0.989538
-0.989538
-1.007633
-1.007633
-1.024709
-1.024709
-1.041147
-1.041147
-1.056890
-1.056890
-1.071594
-1.071594
-1.085471
-1.085471
-1.098548
-1.098548
-1.110606
-1.110606
-1.121606
-1.121606
-1.131794
-1.131794
-1.141013
-1.141013
-1.149221
-1.149221
-1.156417
-1.156417
-1.162558
-1.162558
-1.167590
-1.167590
-1.171608
-1.171608
-1.174476
-1.174476
-1.176289
-1.176289
-1.176685
-1.176685
0.000000
0.000000
0.000000
0.000000
0.000000
0.000000
0.000000
0.000000
0.000000
0.000000
0.000000
0.000000
0.000000
0.000000
0.000000
0.000000
0.000000
0.000000
0.000000
0.000000
0.000000
0.000000

