# vtk DataFile Version 2.0
MATLAB generated vtk file, WMC
ASCII
DATASET UNSTRUCTURED_GRID
POINTS 514 double
0.000000 0.000000 0.000000 
0.195312 0.000000 0.000000 
0.000000 0.195312 0.000000 
0.195312 0.195312 0.000000 
0.000000 0.390625 0.000000 
0.195312 0.390625 0.000000 
0.000000 0.585938 0.000000 
0.195312 0.585938 0.000000 
0.000000 0.781250 0.000000 
0.195312 0.781250 0.000000 
0.000000 0.976562 0.000000 
0.195312 0.976562 0.000000 
0.000000 1.171875 0.000000 
0.195312 1.171875 0.000000 
0.000000 1.367188 0.000000 
0.195312 1.367188 0.000000 
0.000000 1.562500 0.000000 
0.195312 1.562500 0.000000 
0.000000 1.757812 0.000000 
0.195312 1.757812 0.000000 
0.000000 1.953125 0.000000 
0.195312 1.953125 0.000000 
0.000000 2.148438 0.000000 
0.195312 2.148438 0.000000 
0.000000 2.343750 0.000000 
0.195312 2.343750 0.000000 
0.000000 2.539062 0.000000 
0.195312 2.539062 0.000000 
0.000000 2.734375 0.000000 
0.195312 2.734375 0.000000 
0.000000 2.929688 0.000000 
0.195312 2.929688 0.000000 
0.000000 3.125000 0.000000 
0.195312 3.125000 0.000000 
0.000000 3.320312 0.000000 
0.195312 3.320312 0.000000 
0.000000 3.515625 0.000000 
0.195312 3.515625 0.000000 
0.000000 3.710938 0.000000 
0.195312 3.710938 0.000000 
0.000000 3.906250 0.000000 
0.195312 3.906250 0.000000 
0.000000 4.101562 0.000000 
0.195312 4.101562 0.000000 
0.000000 4.296875 0.000000 
0.195312 4.296875 0.000000 
0.000000 4.492188 0.000000 
0.195312 4.492188 0.000000 
0.000000 4.687500 0.000000 
0.195312 4.687500 0.000000 
0.000000 4.882812 0.000000 
0.195312 4.882812 0.000000 
0.000000 5.078125 0.000000 
0.195312 5.078125 0.000000 
0.000000 5.273438 0.000000 
0.195312 5.273438 0.000000 
0.000000 5.468750 0.000000 
0.195312 5.468750 0.000000 
0.000000 5.664062 0.000000 
0.195312 5.664062 0.000000 
0.000000 5.859375 0.000000 
0.195312 5.859375 0.000000 
0.000000 6.054688 0.000000 
0.195312 6.054688 0.000000 
0.000000 6.250000 0.000000 
0.195312 6.250000 0.000000 
0.000000 6.445312 0.000000 
0.195312 6.445312 0.000000 
0.000000 6.640625 0.000000 
0.195312 6.640625 0.000000 
0.000000 6.835938 0.000000 
0.195312 6.835938 0.000000 
0.000000 7.031250 0.000000 
0.195312 7.031250 0.000000 
0.000000 7.226562 0.000000 
0.195312 7.226562 0.000000 
0.000000 7.421875 0.000000 
0.195312 7.421875 0.000000 
0.000000 7.617188 0.000000 
0.195312 7.617188 0.000000 
0.000000 7.812500 0.000000 
0.195312 7.812500 0.000000 
0.000000 8.007812 0.000000 
0.195312 8.007812 0.000000 
0.000000 8.203125 0.000000 
0.195312 8.203125 0.000000 
0.000000 8.398438 0.000000 
0.195312 8.398438 0.000000 
0.000000 8.593750 0.000000 
0.195312 8.593750 0.000000 
0.000000 8.789062 0.000000 
0.195312 8.789062 0.000000 
0.000000 8.984375 0.000000 
0.195312 8.984375 0.000000 
0.000000 9.179688 0.000000 
0.195312 9.179688 0.000000 
0.000000 9.375000 0.000000 
0.195312 9.375000 0.000000 
0.000000 9.570312 0.000000 
0.195312 9.570312 0.000000 
0.000000 9.765625 0.000000 
0.195312 9.765625 0.000000 
0.000000 9.960938 0.000000 
0.195312 9.960938 0.000000 
0.000000 10.156250 0.000000 
0.195312 10.156250 0.000000 
0.000000 10.351562 0.000000 
0.195312 10.351562 0.000000 
0.000000 10.546875 0.000000 
0.195312 10.546875 0.000000 
0.000000 10.742188 0.000000 
0.195312 10.742188 0.000000 
0.000000 10.937500 0.000000 
0.195312 10.937500 0.000000 
0.000000 11.132812 0.000000 
0.195312 11.132812 0.000000 
0.000000 11.328125 0.000000 
0.195312 11.328125 0.000000 
0.000000 11.523438 0.000000 
0.195312 11.523438 0.000000 
0.000000 11.718750 0.000000 
0.195312 11.718750 0.000000 
0.000000 11.914062 0.000000 
0.195312 11.914062 0.000000 
0.000000 12.109375 0.000000 
0.195312 12.109375 0.000000 
0.000000 12.304688 0.000000 
0.195312 12.304688 0.000000 
0.000000 12.500000 0.000000 
0.195312 12.500000 0.000000 
0.000000 12.695312 0.000000 
0.195312 12.695312 0.000000 
0.000000 12.890625 0.000000 
0.195312 12.890625 0.000000 
0.000000 13.085938 0.000000 
0.195312 13.085938 0.000000 
0.000000 13.281250 0.000000 
0.195312 13.281250 0.000000 
0.000000 13.476562 0.000000 
0.195312 13.476562 0.000000 
0.000000 13.671875 0.000000 
0.195312 13.671875 0.000000 
0.000000 13.867188 0.000000 
0.195312 13.867188 0.000000 
0.000000 14.062500 0.000000 
0.195312 14.062500 0.000000 
0.000000 14.257812 0.000000 
0.195312 14.257812 0.000000 
0.000000 14.453125 0.000000 
0.195312 14.453125 0.000000 
0.000000 14.648438 0.000000 
0.195312 14.648438 0.000000 
0.000000 14.843750 0.000000 
0.195312 14.843750 0.000000 
0.000000 15.039062 0.000000 
0.195312 15.039062 0.000000 
0.000000 15.234375 0.000000 
0.195312 15.234375 0.000000 
0.000000 15.429688 0.000000 
0.195312 15.429688 0.000000 
0.000000 15.625000 0.000000 
0.195312 15.625000 0.000000 
0.000000 15.820312 0.000000 
0.195312 15.820312 0.000000 
0.000000 16.015625 0.000000 
0.195312 16.015625 0.000000 
0.000000 16.210938 0.000000 
0.195312 16.210938 0.000000 
0.000000 16.406250 0.000000 
0.195312 16.406250 0.000000 
0.000000 16.601562 0.000000 
0.195312 16.601562 0.000000 
0.000000 16.796875 0.000000 
0.195312 16.796875 0.000000 
0.000000 16.992188 0.000000 
0.195312 16.992188 0.000000 
0.000000 17.187500 0.000000 
0.195312 17.187500 0.000000 
0.000000 17.382812 0.000000 
0.195312 17.382812 0.000000 
0.000000 17.578125 0.000000 
0.195312 17.578125 0.000000 
0.000000 17.773438 0.000000 
0.195312 17.773438 0.000000 
0.000000 17.968750 0.000000 
0.195312 17.968750 0.000000 
0.000000 18.164062 0.000000 
0.195312 18.164062 0.000000 
0.000000 18.359375 0.000000 
0.195312 18.359375 0.000000 
0.000000 18.554688 0.000000 
0.195312 18.554688 0.000000 
0.000000 18.750000 0.000000 
0.195312 18.750000 0.000000 
0.000000 18.945312 0.000000 
0.195312 18.945312 0.000000 
0.000000 19.140625 0.000000 
0.195312 19.140625 0.000000 
0.000000 19.335938 0.000000 
0.195312 19.335938 0.000000 
0.000000 19.531250 0.000000 
0.195312 19.531250 0.000000 
0.000000 19.726562 0.000000 
0.195312 19.726562 0.000000 
0.000000 19.921875 0.000000 
0.195312 19.921875 0.000000 
0.000000 20.117188 0.000000 
0.195312 20.117188 0.000000 
0.000000 20.312500 0.000000 
0.195312 20.312500 0.000000 
0.000000 20.507812 0.000000 
0.195312 20.507812 0.000000 
0.000000 20.703125 0.000000 
0.195312 20.703125 0.000000 
0.000000 20.898438 0.000000 
0.195312 20.898438 0.000000 
0.000000 21.093750 0.000000 
0.195312 21.093750 0.000000 
0.000000 21.289062 0.000000 
0.195312 21.289062 0.000000 
0.000000 21.484375 0.000000 
0.195312 21.484375 0.000000 
0.000000 21.679688 0.000000 
0.195312 21.679688 0.000000 
0.000000 21.875000 0.000000 
0.195312 21.875000 0.000000 
0.000000 22.070312 0.000000 
0.195312 22.070312 0.000000 
0.000000 22.265625 0.000000 
0.195312 22.265625 0.000000 
0.000000 22.460938 0.000000 
0.195312 22.460938 0.000000 
0.000000 22.656250 0.000000 
0.195312 22.656250 0.000000 
0.000000 22.851562 0.000000 
0.195312 22.851562 0.000000 
0.000000 23.046875 0.000000 
0.195312 23.046875 0.000000 
0.000000 23.242188 0.000000 
0.195312 23.242188 0.000000 
0.000000 23.437500 0.000000 
0.195312 23.437500 0.000000 
0.000000 23.632812 0.000000 
0.195312 23.632812 0.000000 
0.000000 23.828125 0.000000 
0.195312 23.828125 0.000000 
0.000000 24.023438 0.000000 
0.195312 24.023438 0.000000 
0.000000 24.218750 0.000000 
0.195312 24.218750 0.000000 
0.000000 24.414062 0.000000 
0.195312 24.414062 0.000000 
0.000000 24.609375 0.000000 
0.195312 24.609375 0.000000 
0.000000 24.804688 0.000000 
0.195312 24.804688 0.000000 
0.000000 25.000000 0.000000 
0.195312 25.000000 0.000000 
0.000000 25.195312 0.000000 
0.195312 25.195312 0.000000 
0.000000 25.390625 0.000000 
0.195312 25.390625 0.000000 
0.000000 25.585938 0.000000 
0.195312 25.585938 0.000000 
0.000000 25.781250 0.000000 
0.195312 25.781250 0.000000 
0.000000 25.976562 0.000000 
0.195312 25.976562 0.000000 
0.000000 26.171875 0.000000 
0.195312 26.171875 0.000000 
0.000000 26.367188 0.000000 
0.195312 26.367188 0.000000 
0.000000 26.562500 0.000000 
0.195312 26.562500 0.000000 
0.000000 26.757812 0.000000 
0.195312 26.757812 0.000000 
0.000000 26.953125 0.000000 
0.195312 26.953125 0.000000 
0.000000 27.148438 0.000000 
0.195312 27.148438 0.000000 
0.000000 27.343750 0.000000 
0.195312 27.343750 0.000000 
0.000000 27.539062 0.000000 
0.195312 27.539062 0.000000 
0.000000 27.734375 0.000000 
0.195312 27.734375 0.000000 
0.000000 27.929688 0.000000 
0.195312 27.929688 0.000000 
0.000000 28.125000 0.000000 
0.195312 28.125000 0.000000 
0.000000 28.320312 0.000000 
0.195312 28.320312 0.000000 
0.000000 28.515625 0.000000 
0.195312 28.515625 0.000000 
0.000000 28.710938 0.000000 
0.195312 28.710938 0.000000 
0.000000 28.906250 0.000000 
0.195312 28.906250 0.000000 
0.000000 29.101562 0.000000 
0.195312 29.101562 0.000000 
0.000000 29.296875 0.000000 
0.195312 29.296875 0.000000 
0.000000 29.492188 0.000000 
0.195312 29.492188 0.000000 
0.000000 29.687500 0.000000 
0.195312 29.687500 0.000000 
0.000000 29.882812 0.000000 
0.195312 29.882812 0.000000 
0.000000 30.078125 0.000000 
0.195312 30.078125 0.000000 
0.000000 30.273438 0.000000 
0.195312 30.273438 0.000000 
0.000000 30.468750 0.000000 
0.195312 30.468750 0.000000 
0.000000 30.664062 0.000000 
0.195312 30.664062 0.000000 
0.000000 30.859375 0.000000 
0.195312 30.859375 0.000000 
0.000000 31.054688 0.000000 
0.195312 31.054688 0.000000 
0.000000 31.250000 0.000000 
0.195312 31.250000 0.000000 
0.000000 31.445312 0.000000 
0.195312 31.445312 0.000000 
0.000000 31.640625 0.000000 
0.195312 31.640625 0.000000 
0.000000 31.835938 0.000000 
0.195312 31.835938 0.000000 
0.000000 32.031250 0.000000 
0.195312 32.031250 0.000000 
0.000000 32.226562 0.000000 
0.195312 32.226562 0.000000 
0.000000 32.421875 0.000000 
0.195312 32.421875 0.000000 
0.000000 32.617188 0.000000 
0.195312 32.617188 0.000000 
0.000000 32.812500 0.000000 
0.195312 32.812500 0.000000 
0.000000 33.007812 0.000000 
0.195312 33.007812 0.000000 
0.000000 33.203125 0.000000 
0.195312 33.203125 0.000000 
0.000000 33.398438 0.000000 
0.195312 33.398438 0.000000 
0.000000 33.593750 0.000000 
0.195312 33.593750 0.000000 
0.000000 33.789062 0.000000 
0.195312 33.789062 0.000000 
0.000000 33.984375 0.000000 
0.195312 33.984375 0.000000 
0.000000 34.179688 0.000000 
0.195312 34.179688 0.000000 
0.000000 34.375000 0.000000 
0.195312 34.375000 0.000000 
0.000000 34.570312 0.000000 
0.195312 34.570312 0.000000 
0.000000 34.765625 0.000000 
0.195312 34.765625 0.000000 
0.000000 34.960938 0.000000 
0.195312 34.960938 0.000000 
0.000000 35.156250 0.000000 
0.195312 35.156250 0.000000 
0.000000 35.351562 0.000000 
0.195312 35.351562 0.000000 
0.000000 35.546875 0.000000 
0.195312 35.546875 0.000000 
0.000000 35.742188 0.000000 
0.195312 35.742188 0.000000 
0.000000 35.937500 0.000000 
0.195312 35.937500 0.000000 
0.000000 36.132812 0.000000 
0.195312 36.132812 0.000000 
0.000000 36.328125 0.000000 
0.195312 36.328125 0.000000 
0.000000 36.523438 0.000000 
0.195312 36.523438 0.000000 
0.000000 36.718750 0.000000 
0.195312 36.718750 0.000000 
0.000000 36.914062 0.000000 
0.195312 36.914062 0.000000 
0.000000 37.109375 0.000000 
0.195312 37.109375 0.000000 
0.000000 37.304688 0.000000 
0.195312 37.304688 0.000000 
0.000000 37.500000 0.000000 
0.195312 37.500000 0.000000 
0.000000 37.695312 0.000000 
0.195312 37.695312 0.000000 
0.000000 37.890625 0.000000 
0.195312 37.890625 0.000000 
0.000000 38.085938 0.000000 
0.195312 38.085938 0.000000 
0.000000 38.281250 0.000000 
0.195312 38.281250 0.000000 
0.000000 38.476562 0.000000 
0.195312 38.476562 0.000000 
0.000000 38.671875 0.000000 
0.195312 38.671875 0.000000 
0.000000 38.867188 0.000000 
0.195312 38.867188 0.000000 
0.000000 39.062500 0.000000 
0.195312 39.062500 0.000000 
0.000000 39.257812 0.000000 
0.195312 39.257812 0.000000 
0.000000 39.453125 0.000000 
0.195312 39.453125 0.000000 
0.000000 39.648438 0.000000 
0.195312 39.648438 0.000000 
0.000000 39.843750 0.000000 
0.195312 39.843750 0.000000 
0.000000 40.039062 0.000000 
0.195312 40.039062 0.000000 
0.000000 40.234375 0.000000 
0.195312 40.234375 0.000000 
0.000000 40.429688 0.000000 
0.195312 40.429688 0.000000 
0.000000 40.625000 0.000000 
0.195312 40.625000 0.000000 
0.000000 40.820312 0.000000 
0.195312 40.820312 0.000000 
0.000000 41.015625 0.000000 
0.195312 41.015625 0.000000 
0.000000 41.210938 0.000000 
0.195312 41.210938 0.000000 
0.000000 41.406250 0.000000 
0.195312 41.406250 0.000000 
0.000000 41.601562 0.000000 
0.195312 41.601562 0.000000 
0.000000 41.796875 0.000000 
0.195312 41.796875 0.000000 
0.000000 41.992188 0.000000 
0.195312 41.992188 0.000000 
0.000000 42.187500 0.000000 
0.195312 42.187500 0.000000 
0.000000 42.382812 0.000000 
0.195312 42.382812 0.000000 
0.000000 42.578125 0.000000 
0.195312 42.578125 0.000000 
0.000000 42.773438 0.000000 
0.195312 42.773438 0.000000 
0.000000 42.968750 0.000000 
0.195312 42.968750 0.000000 
0.000000 43.164062 0.000000 
0.195312 43.164062 0.000000 
0.000000 43.359375 0.000000 
0.195312 43.359375 0.000000 
0.000000 43.554688 0.000000 
0.195312 43.554688 0.000000 
0.000000 43.750000 0.000000 
0.195312 43.750000 0.000000 
0.000000 43.945312 0.000000 
0.195312 43.945312 0.000000 
0.000000 44.140625 0.000000 
0.195312 44.140625 0.000000 
0.000000 44.335938 0.000000 
0.195312 44.335938 0.000000 
0.000000 44.531250 0.000000 
0.195312 44.531250 0.000000 
0.000000 44.726562 0.000000 
0.195312 44.726562 0.000000 
0.000000 44.921875 0.000000 
0.195312 44.921875 0.000000 
0.000000 45.117188 0.000000 
0.195312 45.117188 0.000000 
0.000000 45.312500 0.000000 
0.195312 45.312500 0.000000 
0.000000 45.507812 0.000000 
0.195312 45.507812 0.000000 
0.000000 45.703125 0.000000 
0.195312 45.703125 0.000000 
0.000000 45.898438 0.000000 
0.195312 45.898438 0.000000 
0.000000 46.093750 0.000000 
0.195312 46.093750 0.000000 
0.000000 46.289062 0.000000 
0.195312 46.289062 0.000000 
0.000000 46.484375 0.000000 
0.195312 46.484375 0.000000 
0.000000 46.679688 0.000000 
0.195312 46.679688 0.000000 
0.000000 46.875000 0.000000 
0.195312 46.875000 0.000000 
0.000000 47.070312 0.000000 
0.195312 47.070312 0.000000 
0.000000 47.265625 0.000000 
0.195312 47.265625 0.000000 
0.000000 47.460938 0.000000 
0.195312 47.460938 0.000000 
0.000000 47.656250 0.000000 
0.195312 47.656250 0.000000 
0.000000 47.851562 0.000000 
0.195312 47.851562 0.000000 
0.000000 48.046875 0.000000 
0.195312 48.046875 0.000000 
0.000000 48.242188 0.000000 
0.195312 48.242188 0.000000 
0.000000 48.437500 0.000000 
0.195312 48.437500 0.000000 
0.000000 48.632812 0.000000 
0.195312 48.632812 0.000000 
0.000000 48.828125 0.000000 
0.195312 48.828125 0.000000 
0.000000 49.023438 0.000000 
0.195312 49.023438 0.000000 
0.000000 49.218750 0.000000 
0.195312 49.218750 0.000000 
0.000000 49.414062 0.000000 
0.195312 49.414062 0.000000 
0.000000 49.609375 0.000000 
0.195312 49.609375 0.000000 
0.000000 49.804688 0.000000 
0.195312 49.804688 0.000000 
0.000000 50.000000 0.000000 
0.195312 50.000000 0.000000 

CELLS 256 1280
4 0 1 2 3
4 2 3 4 5
4 4 5 6 7
4 6 7 8 9
4 8 9 10 11
4 10 11 12 13
4 12 13 14 15
4 14 15 16 17
4 16 17 18 19
4 18 19 20 21
4 20 21 22 23
4 22 23 24 25
4 24 25 26 27
4 26 27 28 29
4 28 29 30 31
4 30 31 32 33
4 32 33 34 35
4 34 35 36 37
4 36 37 38 39
4 38 39 40 41
4 40 41 42 43
4 42 43 44 45
4 44 45 46 47
4 46 47 48 49
4 48 49 50 51
4 50 51 52 53
4 52 53 54 55
4 54 55 56 57
4 56 57 58 59
4 58 59 60 61
4 60 61 62 63
4 62 63 64 65
4 64 65 66 67
4 66 67 68 69
4 68 69 70 71
4 70 71 72 73
4 72 73 74 75
4 74 75 76 77
4 76 77 78 79
4 78 79 80 81
4 80 81 82 83
4 82 83 84 85
4 84 85 86 87
4 86 87 88 89
4 88 89 90 91
4 90 91 92 93
4 92 93 94 95
4 94 95 96 97
4 96 97 98 99
4 98 99 100 101
4 100 101 102 103
4 102 103 104 105
4 104 105 106 107
4 106 107 108 109
4 108 109 110 111
4 110 111 112 113
4 112 113 114 115
4 114 115 116 117
4 116 117 118 119
4 118 119 120 121
4 120 121 122 123
4 122 123 124 125
4 124 125 126 127
4 126 127 128 129
4 128 129 130 131
4 130 131 132 133
4 132 133 134 135
4 134 135 136 137
4 136 137 138 139
4 138 139 140 141
4 140 141 142 143
4 142 143 144 145
4 144 145 146 147
4 146 147 148 149
4 148 149 150 151
4 150 151 152 153
4 152 153 154 155
4 154 155 156 157
4 156 157 158 159
4 158 159 160 161
4 160 161 162 163
4 162 163 164 165
4 164 165 166 167
4 166 167 168 169
4 168 169 170 171
4 170 171 172 173
4 172 173 174 175
4 174 175 176 177
4 176 177 178 179
4 178 179 180 181
4 180 181 182 183
4 182 183 184 185
4 184 185 186 187
4 186 187 188 189
4 188 189 190 191
4 190 191 192 193
4 192 193 194 195
4 194 195 196 197
4 196 197 198 199
4 198 199 200 201
4 200 201 202 203
4 202 203 204 205
4 204 205 206 207
4 206 207 208 209
4 208 209 210 211
4 210 211 212 213
4 212 213 214 215
4 214 215 216 217
4 216 217 218 219
4 218 219 220 221
4 220 221 222 223
4 222 223 224 225
4 224 225 226 227
4 226 227 228 229
4 228 229 230 231
4 230 231 232 233
4 232 233 234 235
4 234 235 236 237
4 236 237 238 239
4 238 239 240 241
4 240 241 242 243
4 242 243 244 245
4 244 245 246 247
4 246 247 248 249
4 248 249 250 251
4 250 251 252 253
4 252 253 254 255
4 254 255 256 257
4 256 257 258 259
4 258 259 260 261
4 260 261 262 263
4 262 263 264 265
4 264 265 266 267
4 266 267 268 269
4 268 269 270 271
4 270 271 272 273
4 272 273 274 275
4 274 275 276 277
4 276 277 278 279
4 278 279 280 281
4 280 281 282 283
4 282 283 284 285
4 284 285 286 287
4 286 287 288 289
4 288 289 290 291
4 290 291 292 293
4 292 293 294 295
4 294 295 296 297
4 296 297 298 299
4 298 299 300 301
4 300 301 302 303
4 302 303 304 305
4 304 305 306 307
4 306 307 308 309
4 308 309 310 311
4 310 311 312 313
4 312 313 314 315
4 314 315 316 317
4 316 317 318 319
4 318 319 320 321
4 320 321 322 323
4 322 323 324 325
4 324 325 326 327
4 326 327 328 329
4 328 329 330 331
4 330 331 332 333
4 332 333 334 335
4 334 335 336 337
4 336 337 338 339
4 338 339 340 341
4 340 341 342 343
4 342 343 344 345
4 344 345 346 347
4 346 347 348 349
4 348 349 350 351
4 350 351 352 353
4 352 353 354 355
4 354 355 356 357
4 356 357 358 359
4 358 359 360 361
4 360 361 362 363
4 362 363 364 365
4 364 365 366 367
4 366 367 368 369
4 368 369 370 371
4 370 371 372 373
4 372 373 374 375
4 374 375 376 377
4 376 377 378 379
4 378 379 380 381
4 380 381 382 383
4 382 383 384 385
4 384 385 386 387
4 386 387 388 389
4 388 389 390 391
4 390 391 392 393
4 392 393 394 395
4 394 395 396 397
4 396 397 398 399
4 398 399 400 401
4 400 401 402 403
4 402 403 404 405
4 404 405 406 407
4 406 407 408 409
4 408 409 410 411
4 410 411 412 413
4 412 413 414 415
4 414 415 416 417
4 416 417 418 419
4 418 419 420 421
4 420 421 422 423
4 422 423 424 425
4 424 425 426 427
4 426 427 428 429
4 428 429 430 431
4 430 431 432 433
4 432 433 434 435
4 434 435 436 437
4 436 437 438 439
4 438 439 440 441
4 440 441 442 443
4 442 443 444 445
4 444 445 446 447
4 446 447 448 449
4 448 449 450 451
4 450 451 452 453
4 452 453 454 455
4 454 455 456 457
4 456 457 458 459
4 458 459 460 461
4 460 461 462 463
4 462 463 464 465
4 464 465 466 467
4 466 467 468 469
4 468 469 470 471
4 470 471 472 473
4 472 473 474 475
4 474 475 476 477
4 476 477 478 479
4 478 479 480 481
4 480 481 482 483
4 482 483 484 485
4 484 485 486 487
4 486 487 488 489
4 488 489 490 491
4 490 491 492 493
4 492 493 494 495
4 494 495 496 497
4 496 497 498 499
4 498 499 500 501
4 500 501 502 503
4 502 503 504 505
4 504 505 506 507
4 506 507 508 509
4 508 509 510 511
4 510 511 512 513

CELL_TYPES 256
8
8
8
8
8
8
8
8
8
8
8
8
8
8
8
8
8
8
8
8
8
8
8
8
8
8
8
8
8
8
8
8
8
8
8
8
8
8
8
8
8
8
8
8
8
8
8
8
8
8
8
8
8
8
8
8
8
8
8
8
8
8
8
8
8
8
8
8
8
8
8
8
8
8
8
8
8
8
8
8
8
8
8
8
8
8
8
8
8
8
8
8
8
8
8
8
8
8
8
8
8
8
8
8
8
8
8
8
8
8
8
8
8
8
8
8
8
8
8
8
8
8
8
8
8
8
8
8
8
8
8
8
8
8
8
8
8
8
8
8
8
8
8
8
8
8
8
8
8
8
8
8
8
8
8
8
8
8
8
8
8
8
8
8
8
8
8
8
8
8
8
8
8
8
8
8
8
8
8
8
8
8
8
8
8
8
8
8
8
8
8
8
8
8
8
8
8
8
8
8
8
8
8
8
8
8
8
8
8
8
8
8
8
8
8
8
8
8
8
8
8
8
8
8
8
8
8
8
8
8
8
8
8
8
8
8
8
8
8
8
8
8
8
8
8
8
8
8
8
8
8
8
8
8
8
8

POINT_DATA 514
SCALARS u_x FLOAT 1
LOOKUP_TABLE default
0.000000
0.000000
0.000000
0.000000
0.000000
0.000000
0.000000
0.000000
0.000000
0.000000
0.000000
0.000000
0.000000
0.000000
0.000000
0.000000
0.000000
0.000000
0.000000
0.000000
0.000000
0.000000
0.000000
0.000000
0.000000
0.000000
0.000000
0.000000
0.000000
0.000000
0.000000
0.000000
0.000000
0.000000
0.000000
0.000000
0.000000
0.000000
0.000000
0.000000
0.000000
0.000000
0.000000
0.000000
0.000000
0.000000
0.000000
0.000000
0.000000
0.000000
0.000000
0.000000
0.000000
0.000000
0.000000
0.000000
0.000000
0.000000
0.000000
0.000000
0.000000
0.000000
0.000000
0.000000
0.000000
0.000000
0.000000
0.000000
0.000000
0.000000
0.000000
0.000000
0.000000
0.000000
0.000000
0.000000
0.000000
0.000000
0.000000
0.000000
0.000000
0.000000
0.000000
0.000000
0.000000
0.000000
0.000000
0.000000
0.000000
0.000000
0.000000
0.000000
0.000000
0.000000
0.000000
0.000000
0.000000
0.000000
0.000000
0.000000
0.000000
0.000000
0.000000
0.000000
0.000000
0.000000
0.000000
0.000000
0.000000
0.000000
0.000000
0.000000
0.000000
0.000000
0.000000
0.000000
0.000000
0.000000
0.000000
0.000000
0.000000
0.000000
0.000000
0.000000
0.000000
0.000000
0.000000
0.000000
0.000000
0.000000
0.000000
0.000000
0.000000
0.000000
0.000000
0.000000
0.000000
0.000000
0.000000
0.000000
0.000000
0.000000
0.000000
0.000000
0.000000
0.000000
0.000000
0.000000
0.000000
0.000000
0.000000
0.000000
0.000000
0.000000
0.000000
0.000000
0.000000
0.000000
0.000000
0.000000
0.000000
0.000000
0.000000
0.000000
0.000000
0.000000
0.000000
0.000000
0.000000
0.000000
0.000000
0.000000
0.000000
0.000000
0.000000
0.000000
0.000000
0.000000
0.000000
0.000000
0.000000
0.000000
0.000000
0.000000
0.000000
0.000000
0.000000
0.000000
0.000000
0.000000
0.000000
0.000000
0.000000
0.000000
0.000000
0.000000
0.000000
0.000000
0.000000
0.000000
0.000000
0.000000
0.000000
0.000000
0.000000
0.000000
0.000000
0.000000
0.000000
0.000000
0.000000
0.000000
0.000000
0.000000
0.000000
0.000000
0.000000
0.000000
0.000000
0.000000
0.000000
0.000000
0.000000
0.000000
0.000000
0.000000
0.000000
0.000000
0.000000
0.000000
0.000000
0.000000
0.000000
0.000000
0.000000
0.000000
0.000000
0.000000
0.000000
0.000000
0.000000
0.000000
0.000000
0.000000
0.000000
0.000000
0.000000
0.000000
0.000000
0.000000
0.000000
0.000000
0.000000
0.000000
0.000000
0.000000
0.000000
0.000000
0.000000
0.000000
0.000000
0.000000
0.000000
0.000000
0.000000
0.000000
0.000000
0.000000
0.000000
0.000000
0.000000
0.000000
0.000000
0.000000
0.000000
0.000000
0.000000
0.000000
0.000000
0.000000
0.000000
0.000000
0.000000
0.000000
0.000000
0.000000
0.000000
0.000000
0.000000
0.000000
0.000000
0.000000
0.000000
0.000000
0.000000
0.000000
0.000000
0.000000
0.000000
0.000000
0.000000
0.000000
0.000000
0.000000
0.000000
0.000000
0.000000
0.000000
0.000000
0.000000
0.000000
0.000000
0.000000
0.000000
0.000000
0.000000
0.000000
0.000000
0.000000
0.000000
0.000000
0.000000
0.000000
0.000000
0.000000
0.000000
0.000000
0.000000
0.000000
0.000000
0.000000
0.000000
0.000000
0.000000
0.000000
0.000000
0.000000
0.000000
0.000000
0.000000
0.000000
0.000000
0.000000
0.000000
0.000000
0.000000
0.000000
0.000000
0.000000
0.000000
0.000000
0.000000
0.000000
0.000000
0.000000
0.000000
0.000000
0.000000
0.000000
0.000000
0.000000
0.000000
0.000000
0.000000
0.000000
0.000000
0.000000
0.000000
0.000000
0.000000
0.000000
0.000000
0.000000
0.000000
0.000000
0.000000
0.000000
0.000000
0.000000
0.000000
0.000000
0.000000
0.000000
0.000000
0.000000
0.000000
0.000000
0.000000
0.000000
0.000000
0.000000
0.000000
0.000000
0.000000
0.000000
0.000000
0.000000
0.000000
0.000000
0.000000
0.000000
0.000000
0.000000
0.000000
0.000000
0.000000
0.000000
0.000000
0.000000
0.000000
0.000000
0.000000
0.000000
0.000000
0.000000
0.000000
0.000000
0.000000
0.000000
0.000000
0.000000
0.000000
0.000000
0.000000
0.000000
0.000000
0.000000
0.000000
0.000000
0.000000
0.000000
0.000000
0.000000
0.000000
0.000000
0.000000
0.000000
0.000000
0.000000
0.000000
0.000000
0.000000
0.000000
0.000000
0.000000
0.000000
0.000000
0.000000
0.000000
0.000000
0.000000
0.000000
0.000000
0.000000
0.000000
0.000000
0.000000
0.000000
0.000000
0.000000
0.000000
0.000000
0.000000
0.000000
0.000000
0.000000
0.000000
0.000000
0.000000
0.000000
0.000000
0.000000
0.000000
0.000000
0.000000
0.000000
0.000000
0.000000
0.000000
0.000000
0.000000
0.000000
0.000000
0.000000
0.000000
0.000000
0.000000
0.000000
0.000000
0.000000
0.000000
0.000000
0.000000
0.000000
0.000000
0.000000
0.000000
0.000000
0.000000
0.000000
0.000000
0.000000
0.000000
0.000000
0.000000
0.000000
0.000000
0.000000
0.000000
0.000000
0.000000
0.000000
0.000000
0.000000

SCALARS u_y FLOAT 1
LOOKUP_TABLE default
0.000000
0.000000
-0.006382
-0.006382
-0.012744
-0.012744
-0.019094
-0.019094
-0.025424
-0.025424
-0.031731
-0.031731
-0.038024
-0.038024
-0.044299
-0.044299
-0.050565
-0.050565
-0.056798
-0.056798
-0.063026
-0.063026
-0.069229
-0.069229
-0.075416
-0.075416
-0.081582
-0.081582
-0.087731
-0.087731
-0.093867
-0.093867
-0.099987
-0.099987
-0.106072
-0.106072
-0.112148
-0.112148
-0.118197
-0.118197
-0.124252
-0.124252
-0.130266
-0.130266
-0.136261
-0.136261
-0.142251
-0.142251
-0.148202
-0.148202
-0.154148
-0.154148
-0.160070
-0.160070
-0.165970
-0.165970
-0.171850
-0.171850
-0.177713
-0.177713
-0.183554
-0.183554
-0.189377
-0.189377
-0.195175
-0.195175
-0.200959
-0.200959
-0.206723
-0.206723
-0.212469
-0.212469
-0.218177
-0.218177
-0.223883
-0.223883
-0.229556
-0.229556
-0.235222
-0.235222
-0.240852
-0.240852
-0.246476
-0.246476
-0.252058
-0.252058
-0.257625
-0.257625
-0.263175
-0.263175
-0.268702
-0.268702
-0.274205
-0.274205
-0.279699
-0.279699
-0.285148
-0.285148
-0.290603
-0.290603
-0.296009
-0.296009
-0.301401
-0.301401
-0.306779
-0.306779
-0.312121
-0.312121
-0.317445
-0.317445
-0.322738
-0.322738
-0.328025
-0.328025
-0.333269
-0.333269
-0.338505
-0.338505
-0.343707
-0.343707
-0.348892
-0.348892
-0.354043
-0.354043
-0.359177
-0.359177
-0.364286
-0.364286
-0.369372
-0.369372
-0.374425
-0.374425
-0.379465
-0.379465
-0.384466
-0.384466
-0.389454
-0.389454
-0.394413
-0.394413
-0.399345
-0.399345
-0.404260
-0.404260
-0.409127
-0.409127
-0.413980
-0.413980
-0.418800
-0.418800
-0.423614
-0.423614
-0.428378
-0.428378
-0.433123
-0.433123
-0.437844
-0.437844
-0.442541
-0.442541
-0.447195
-0.447195
-0.451844
-0.451844
-0.456458
-0.456458
-0.461034
-0.461034
-0.465589
-0.465589
-0.470097
-0.470097
-0.474602
-0.474602
-0.479065
-0.479065
-0.483497
-0.483497
-0.487914
-0.487914
-0.492283
-0.492283
-0.496627
-0.496627
-0.500943
-0.500943
-0.505227
-0.505227
-0.509481
-0.509481
-0.513709
-0.513709
-0.517907
-0.517907
-0.522065
-0.522065
-0.526194
-0.526194
-0.530296
-0.530296
-0.534365
-0.534365
-0.538396
-0.538396
-0.542396
-0.542396
-0.546363
-0.546363
-0.550297
-0.550297
-0.554198
-0.554198
-0.558066
-0.558066
-0.561905
-0.561905
-0.565708
-0.565708
-0.569467
-0.569467
-0.573206
-0.573206
-0.576911
-0.576911
-0.580568
-0.580568
-0.584194
-0.584194
-0.587779
-0.587779
-0.591331
-0.591331
-0.594845
-0.594845
-0.598320
-0.598320
-0.601746
-0.601746
-0.605165
-0.605165
-0.608541
-0.608541
-0.611874
-0.611874
-0.615158
-0.615158
-0.618403
-0.618403
-0.621635
-0.621635
-0.624806
-0.624806
-0.627915
-0.627915
-0.630991
-0.630991
-0.634070
-0.634070
-0.637095
-0.637095
-0.640063
-0.640063
-0.642967
-0.642967
-0.645860
-0.645860
-0.648685
-0.648685
-0.651502
-0.651502
-0.654255
-0.654255
-0.656956
-0.656956
-0.659643
-0.659643
-0.662259
-0.662259
-0.664843
-0.664843
-0.667365
-0.667365
-0.669842
-0.669842
-0.672271
-0.672271
-0.674658
-0.674658
-0.677010
-0.677010
-0.679301
-0.679301
-0.681557
-0.681557
-0.683741
-0.683741
-0.685889
-0.685889
-0.687985
-0.687985
-0.690024
-0.690024
-0.692034
-0.692034
-0.693967
-0.693967
-0.695872
-0.695872
-0.697710
-0.697710
-0.699478
-0.699478
-0.701222
-0.701222
-0.702900
-0.702900
-0.704506
-0.704506
-0.706083
-0.706083
-0.707600
-0.707600
-0.709031
-0.709031
-0.710422
-0.710422
-0.711765
-0.711765
-0.713046
-0.713046
-0.714246
-0.714246
-0.715393
-0.715393
-0.716491
-0.716491
-0.717525
-0.717525
-0.718492
-0.718492
-0.719394
-0.719394
-0.720219
-0.720219
-0.720996
-0.720996
-0.721705
-0.721705
-0.722346
-0.722346
-0.722917
-0.722917
-0.723419
-0.723419
-0.723850
-0.723850
-0.724211
-0.724211
-0.724499
-0.724499
-0.724715
-0.724715
-0.724856
-0.724856
-0.724923
-0.724923
-0.724920
-0.724920
0.000000
0.000000
0.000000
0.000000
0.000000
0.000000
0.000000
0.000000
0.000000
0.000000
0.000000
0.000000
0.000000
0.000000
0.000000
0.000000
0.000000
0.000000
0.000000
0.000000
0.000000
0.000000
0.000000
0.000000
0.000000
0.000000
0.000000
0.000000
0.000000
0.000000
0.000000
0.000000
0.000000
0.000000
0.000000
0.000000
0.000000
0.000000
0.000000
0.000000
0.000000
0.000000
0.000000
0.000000
0.000000
0.000000
0.000000
0.000000
0.000000
0.000000
0.000000
0.000000
0.000000
0.000000
0.000000
0.000000
0.000000
0.000000
0.000000
0.000000
0.000000
0.000000
0.000000
0.000000
0.000000
0.000000
0.000000
0.000000
0.000000
0.000000
0.000000
0.000000
0.000000
0.000000
0.000000
0.000000
0.000000
0.000000
0.000000
0.000000
0.000000
0.000000
0.000000
0.000000
0.000000
0.000000
0.000000
0.000000
0.000000
0.000000
0.000000
0.000000
0.000000
0.000000
0.000000
0.000000
0.000000
0.000000
0.000000
0.000000
0.000000
0.000000
0.000000
0.000000
0.000000
0.000000
0.000000
0.000000
0.000000
0.000000
0.000000
0.000000
0.000000
0.000000
0.000000
0.000000
0.000000
0.000000
0.000000
0.000000
0.000000
0.000000
0.000000
0.000000
0.000000
0.000000
0.000000
0.000000
0.000000
0.000000
0.000000
0.000000
0.000000
0.000000
0.000000
0.000000
0.000000
0.000000
0.000000
0.000000
0.000000
0.000000
0.000000
0.000000
0.000000
0.000000

