# vtk DataFile Version 2.0
MATLAB generated vtk file, WMC
ASCII
DATASET UNSTRUCTURED_GRID
<<<<<<< Updated upstream
POINTS 2048 double
0.024414 0.012163 0.000000 
0.024414 0.036490 0.000000 
0.073242 0.012163 0.000000 
0.073242 0.036490 0.000000 
0.024414 0.060821 0.000000 
0.024414 0.085165 0.000000 
0.073242 0.060821 0.000000 
0.073242 0.085165 0.000000 
0.024414 0.109521 0.000000 
0.024414 0.133886 0.000000 
0.073242 0.109521 0.000000 
0.073242 0.133886 0.000000 
0.024414 0.158259 0.000000 
0.024414 0.182643 0.000000 
0.073242 0.158259 0.000000 
0.073242 0.182643 0.000000 
0.024414 0.207038 0.000000 
0.024414 0.231441 0.000000 
0.073242 0.207038 0.000000 
0.073242 0.231441 0.000000 
0.024414 0.255855 0.000000 
0.024414 0.280279 0.000000 
0.073242 0.255855 0.000000 
0.073242 0.280279 0.000000 
0.024414 0.304712 0.000000 
0.024414 0.329156 0.000000 
0.073242 0.304712 0.000000 
0.073242 0.329156 0.000000 
0.024414 0.353609 0.000000 
0.024414 0.378072 0.000000 
0.073242 0.353609 0.000000 
0.073242 0.378072 0.000000 
0.024414 0.402545 0.000000 
0.024414 0.427028 0.000000 
0.073242 0.402545 0.000000 
0.073242 0.427028 0.000000 
0.024414 0.451521 0.000000 
0.024414 0.476024 0.000000 
0.073242 0.451521 0.000000 
0.073242 0.476024 0.000000 
0.024414 0.500538 0.000000 
0.024414 0.525060 0.000000 
0.073242 0.500538 0.000000 
0.073242 0.525060 0.000000 
0.024414 0.549593 0.000000 
0.024414 0.574136 0.000000 
0.073242 0.549593 0.000000 
0.073242 0.574136 0.000000 
0.024414 0.598688 0.000000 
0.024414 0.623251 0.000000 
0.073242 0.598688 0.000000 
0.073242 0.623251 0.000000 
0.024414 0.647824 0.000000 
0.024414 0.672408 0.000000 
0.073242 0.647824 0.000000 
0.073242 0.672408 0.000000 
0.024414 0.697001 0.000000 
0.024414 0.721605 0.000000 
0.073242 0.697001 0.000000 
0.073242 0.721605 0.000000 
0.024414 0.746217 0.000000 
0.024414 0.770841 0.000000 
0.073242 0.746217 0.000000 
0.073242 0.770841 0.000000 
0.024414 0.795473 0.000000 
0.024414 0.820116 0.000000 
0.073242 0.795473 0.000000 
0.073242 0.820116 0.000000 
0.024414 0.844770 0.000000 
0.024414 0.869433 0.000000 
0.073242 0.844770 0.000000 
0.073242 0.869433 0.000000 
0.024414 0.894107 0.000000 
0.024414 0.918790 0.000000 
0.073242 0.894107 0.000000 
0.073242 0.918790 0.000000 
0.024414 0.943484 0.000000 
0.024414 0.968188 0.000000 
0.073242 0.943484 0.000000 
0.073242 0.968188 0.000000 
0.024414 0.992902 0.000000 
0.024414 1.017627 0.000000 
0.073242 0.992902 0.000000 
0.073242 1.017627 0.000000 
0.024414 1.042361 0.000000 
0.024414 1.067106 0.000000 
0.073242 1.042361 0.000000 
0.073242 1.067106 0.000000 
0.024414 1.091862 0.000000 
0.024414 1.116626 0.000000 
0.073242 1.091862 0.000000 
0.073242 1.116626 0.000000 
0.024414 1.141402 0.000000 
0.024414 1.166187 0.000000 
0.073242 1.141402 0.000000 
0.073242 1.166187 0.000000 
0.024414 1.190984 0.000000 
0.024414 1.215791 0.000000 
0.073242 1.190984 0.000000 
0.073242 1.215791 0.000000 
0.024414 1.240607 0.000000 
0.024414 1.265435 0.000000 
0.073242 1.240607 0.000000 
0.073242 1.265435 0.000000 
0.024414 1.290271 0.000000 
0.024414 1.315119 0.000000 
0.073242 1.290271 0.000000 
0.073242 1.315119 0.000000 
0.024414 1.339978 0.000000 
0.024414 1.364846 0.000000 
0.073242 1.339978 0.000000 
0.073242 1.364846 0.000000 
0.024414 1.389723 0.000000 
0.024414 1.414612 0.000000 
0.073242 1.389723 0.000000 
0.073242 1.414612 0.000000 
0.024414 1.439510 0.000000 
0.024414 1.464420 0.000000 
0.073242 1.439510 0.000000 
0.073242 1.464420 0.000000 
0.024414 1.489340 0.000000 
0.024414 1.514270 0.000000 
0.073242 1.489340 0.000000 
0.073242 1.514270 0.000000 
0.024414 1.539211 0.000000 
0.024414 1.564162 0.000000 
0.073242 1.539211 0.000000 
0.073242 1.564162 0.000000 
0.024414 1.589124 0.000000 
0.024414 1.614095 0.000000 
0.073242 1.589124 0.000000 
0.073242 1.614095 0.000000 
0.024414 1.639079 0.000000 
0.024414 1.664070 0.000000 
0.073242 1.639079 0.000000 
0.073242 1.664070 0.000000 
0.024414 1.689074 0.000000 
0.024414 1.714088 0.000000 
0.073242 1.689074 0.000000 
0.073242 1.714088 0.000000 
0.024414 1.739112 0.000000 
0.024414 1.764149 0.000000 
0.073242 1.739112 0.000000 
0.073242 1.764149 0.000000 
0.024414 1.789195 0.000000 
0.024414 1.814249 0.000000 
0.073242 1.789195 0.000000 
0.073242 1.814249 0.000000 
0.024414 1.839316 0.000000 
0.024414 1.864394 0.000000 
0.073242 1.839316 0.000000 
0.073242 1.864394 0.000000 
0.024414 1.889481 0.000000 
0.024414 1.914579 0.000000 
0.073242 1.889481 0.000000 
0.073242 1.914579 0.000000 
0.024414 1.939689 0.000000 
0.024414 1.964809 0.000000 
0.073242 1.939689 0.000000 
0.073242 1.964809 0.000000 
0.024414 1.989937 0.000000 
0.024414 2.015079 0.000000 
0.073242 1.989937 0.000000 
0.073242 2.015079 0.000000 
0.024414 2.040229 0.000000 
0.024414 2.065391 0.000000 
0.073242 2.040229 0.000000 
0.073242 2.065391 0.000000 
0.024414 2.090565 0.000000 
0.024414 2.115748 0.000000 
0.073242 2.090565 0.000000 
0.073242 2.115748 0.000000 
0.024414 2.140942 0.000000 
0.024414 2.166147 0.000000 
0.073242 2.140942 0.000000 
0.073242 2.166147 0.000000 
0.024414 2.191364 0.000000 
0.024414 2.216589 0.000000 
0.073242 2.191364 0.000000 
0.073242 2.216589 0.000000 
0.024414 2.241826 0.000000 
0.024414 2.267074 0.000000 
0.073242 2.241826 0.000000 
0.073242 2.267074 0.000000 
0.024414 2.292332 0.000000 
0.024414 2.317600 0.000000 
0.073242 2.292332 0.000000 
0.073242 2.317600 0.000000 
0.024414 2.342882 0.000000 
0.024414 2.368171 0.000000 
0.073242 2.342882 0.000000 
0.073242 2.368171 0.000000 
0.024414 2.393472 0.000000 
0.024414 2.418786 0.000000 
0.073242 2.393472 0.000000 
0.073242 2.418786 0.000000 
0.024414 2.444108 0.000000 
0.024414 2.469443 0.000000 
0.073242 2.444108 0.000000 
0.073242 2.469443 0.000000 
0.024414 2.494787 0.000000 
0.024414 2.520146 0.000000 
0.073242 2.494787 0.000000 
0.073242 2.520146 0.000000 
0.024414 2.545512 0.000000 
0.024414 2.570889 0.000000 
0.073242 2.545512 0.000000 
0.073242 2.570889 0.000000 
0.024414 2.596279 0.000000 
0.024414 2.621678 0.000000 
0.073242 2.596279 0.000000 
0.073242 2.621678 0.000000 
0.024414 2.647087 0.000000 
0.024414 2.672509 0.000000 
0.073242 2.647087 0.000000 
0.073242 2.672509 0.000000 
0.024414 2.697942 0.000000 
0.024414 2.723384 0.000000 
0.073242 2.697942 0.000000 
0.073242 2.723384 0.000000 
0.024414 2.748837 0.000000 
0.024414 2.774303 0.000000 
0.073242 2.748837 0.000000 
0.073242 2.774303 0.000000 
0.024414 2.799780 0.000000 
0.024414 2.825267 0.000000 
0.073242 2.799780 0.000000 
0.073242 2.825267 0.000000 
0.024414 2.850765 0.000000 
0.024414 2.876275 0.000000 
0.073242 2.850765 0.000000 
0.073242 2.876275 0.000000 
0.024414 2.901797 0.000000 
0.024414 2.927327 0.000000 
0.073242 2.901797 0.000000 
0.073242 2.927327 0.000000 
0.024414 2.952871 0.000000 
0.024414 2.978423 0.000000 
0.073242 2.952871 0.000000 
0.073242 2.978423 0.000000 
0.024414 3.003987 0.000000 
0.024414 3.029563 0.000000 
0.073242 3.003987 0.000000 
0.073242 3.029563 0.000000 
0.024414 3.055149 0.000000 
0.024414 3.080748 0.000000 
0.073242 3.055149 0.000000 
0.073242 3.080748 0.000000 
0.024414 3.106356 0.000000 
0.024414 3.131977 0.000000 
0.073242 3.106356 0.000000 
0.073242 3.131977 0.000000 
0.024414 3.157609 0.000000 
0.024414 3.183252 0.000000 
0.073242 3.157609 0.000000 
0.073242 3.183252 0.000000 
0.024414 3.208906 0.000000 
0.024414 3.234572 0.000000 
0.073242 3.208906 0.000000 
0.073242 3.234572 0.000000 
0.024414 3.260249 0.000000 
0.024414 3.285935 0.000000 
0.073242 3.260249 0.000000 
0.073242 3.285935 0.000000 
0.024414 3.311634 0.000000 
0.024414 3.337345 0.000000 
0.073242 3.311634 0.000000 
0.073242 3.337345 0.000000 
0.024414 3.363065 0.000000 
0.024414 3.388798 0.000000 
0.073242 3.363065 0.000000 
0.073242 3.388798 0.000000 
0.024414 3.414542 0.000000 
0.024414 3.440296 0.000000 
0.073242 3.414542 0.000000 
0.073242 3.440296 0.000000 
0.024414 3.466065 0.000000 
0.024414 3.491843 0.000000 
0.073242 3.466065 0.000000 
0.073242 3.491843 0.000000 
0.024414 3.517633 0.000000 
0.024414 3.543436 0.000000 
0.073242 3.517633 0.000000 
0.073242 3.543436 0.000000 
0.024414 3.569247 0.000000 
0.024414 3.595069 0.000000 
0.073242 3.569247 0.000000 
0.073242 3.595069 0.000000 
0.024414 3.620905 0.000000 
0.024414 3.646750 0.000000 
0.073242 3.620905 0.000000 
0.073242 3.646750 0.000000 
0.024414 3.672608 0.000000 
0.024414 3.698477 0.000000 
0.073242 3.672608 0.000000 
0.073242 3.698477 0.000000 
0.024414 3.724359 0.000000 
0.024414 3.750250 0.000000 
0.073242 3.724359 0.000000 
0.073242 3.750250 0.000000 
0.024414 3.776154 0.000000 
0.024414 3.802070 0.000000 
0.073242 3.776154 0.000000 
0.073242 3.802070 0.000000 
0.024414 3.827995 0.000000 
0.024414 3.853935 0.000000 
0.073242 3.827995 0.000000 
0.073242 3.853935 0.000000 
0.024414 3.879885 0.000000 
0.024414 3.905847 0.000000 
0.073242 3.879885 0.000000 
0.073242 3.905847 0.000000 
0.024414 3.931820 0.000000 
0.024414 3.957804 0.000000 
0.073242 3.931820 0.000000 
0.073242 3.957804 0.000000 
0.024414 3.983800 0.000000 
0.024414 4.009809 0.000000 
0.073242 3.983800 0.000000 
0.073242 4.009809 0.000000 
0.024414 4.035830 0.000000 
0.024414 4.061859 0.000000 
0.073242 4.035830 0.000000 
0.073242 4.061859 0.000000 
0.024414 4.087902 0.000000 
0.024414 4.113956 0.000000 
0.073242 4.087902 0.000000 
0.073242 4.113956 0.000000 
0.024414 4.140021 0.000000 
0.024414 4.166100 0.000000 
0.073242 4.140021 0.000000 
0.073242 4.166100 0.000000 
0.024414 4.192189 0.000000 
0.024414 4.218290 0.000000 
0.073242 4.192189 0.000000 
0.073242 4.218290 0.000000 
0.024414 4.244403 0.000000 
0.024414 4.270527 0.000000 
0.073242 4.244403 0.000000 
0.073242 4.270527 0.000000 
0.024414 4.296664 0.000000 
0.024414 4.322811 0.000000 
0.073242 4.296664 0.000000 
0.073242 4.322811 0.000000 
0.024414 4.348973 0.000000 
0.024414 4.375145 0.000000 
0.073242 4.348973 0.000000 
0.073242 4.375145 0.000000 
0.024414 4.401328 0.000000 
0.024414 4.427524 0.000000 
0.073242 4.401328 0.000000 
0.073242 4.427524 0.000000 
[...]
POINT_DATA 2048
=======
POINTS 288 double
0.520833 0.266996 0.000000 
0.520833 0.800988 0.000000 
0.520833 1.334980 0.000000 
0.520833 1.868972 0.000000 
0.520833 2.402964 0.000000 
0.520833 2.936957 0.000000 
1.562500 0.266996 0.000000 
1.562500 0.800988 0.000000 
1.562500 1.334980 0.000000 
1.562500 1.868972 0.000000 
1.562500 2.402964 0.000000 
1.562500 2.936957 0.000000 
2.604167 0.266996 0.000000 
2.604167 0.800988 0.000000 
2.604167 1.334980 0.000000 
2.604167 1.868972 0.000000 
2.604167 2.402964 0.000000 
2.604167 2.936957 0.000000 
3.645833 0.266996 0.000000 
3.645833 0.800988 0.000000 
3.645833 1.334980 0.000000 
3.645833 1.868972 0.000000 
3.645833 2.402964 0.000000 
3.645833 2.936957 0.000000 
4.687500 0.266996 0.000000 
4.687500 0.800988 0.000000 
4.687500 1.334980 0.000000 
4.687500 1.868972 0.000000 
4.687500 2.402964 0.000000 
4.687500 2.936957 0.000000 
5.729167 0.266996 0.000000 
5.729167 0.800988 0.000000 
5.729167 1.334980 0.000000 
5.729167 1.868972 0.000000 
5.729167 2.402964 0.000000 
5.729167 2.936957 0.000000 
0.520833 3.474377 0.000000 
0.520833 4.020906 0.000000 
0.520833 4.575957 0.000000 
0.520833 5.139114 0.000000 
0.520833 5.709729 0.000000 
0.520833 6.286403 0.000000 
1.562500 3.474377 0.000000 
1.562500 4.020906 0.000000 
1.562500 4.575957 0.000000 
1.562500 5.139114 0.000000 
1.562500 5.709729 0.000000 
1.562500 6.286403 0.000000 
2.604167 3.474377 0.000000 
2.604167 4.020906 0.000000 
2.604167 4.575957 0.000000 
2.604167 5.139114 0.000000 
2.604167 5.709729 0.000000 
2.604167 6.286403 0.000000 
3.645833 3.474377 0.000000 
3.645833 4.020906 0.000000 
3.645833 4.575957 0.000000 
3.645833 5.139114 0.000000 
3.645833 5.709729 0.000000 
3.645833 6.286403 0.000000 
4.687500 3.474377 0.000000 
4.687500 4.020906 0.000000 
4.687500 4.575957 0.000000 
4.687500 5.139114 0.000000 
4.687500 5.709729 0.000000 
4.687500 6.286403 0.000000 
5.729167 3.474377 0.000000 
5.729167 4.020906 0.000000 
5.729167 4.575957 0.000000 
5.729167 5.139114 0.000000 
5.729167 5.709729 0.000000 
5.729167 6.286403 0.000000 
0.520833 6.868267 0.000000 
0.520833 7.455888 0.000000 
0.520833 8.049126 0.000000 
0.520833 8.647923 0.000000 
0.520833 9.252092 0.000000 
0.520833 9.861082 0.000000 
1.562500 6.868267 0.000000 
1.562500 7.455888 0.000000 
1.562500 8.049126 0.000000 
1.562500 8.647923 0.000000 
1.562500 9.252092 0.000000 
1.562500 9.861082 0.000000 
2.604167 6.868267 0.000000 
2.604167 7.455888 0.000000 
2.604167 8.049126 0.000000 
2.604167 8.647923 0.000000 
2.604167 9.252092 0.000000 
2.604167 9.861082 0.000000 
3.645833 6.868267 0.000000 
3.645833 7.455888 0.000000 
3.645833 8.049126 0.000000 
3.645833 8.647923 0.000000 
3.645833 9.252092 0.000000 
3.645833 9.861082 0.000000 
4.687500 6.868267 0.000000 
4.687500 7.455888 0.000000 
4.687500 8.049126 0.000000 
4.687500 8.647923 0.000000 
4.687500 9.252092 0.000000 
4.687500 9.861082 0.000000 
5.729167 6.868267 0.000000 
5.729167 7.455888 0.000000 
5.729167 8.049126 0.000000 
5.729167 8.647923 0.000000 
5.729167 9.252092 0.000000 
5.729167 9.861082 0.000000 
0.520833 10.477667 0.000000 
0.520833 11.103268 0.000000 
0.520833 11.738676 0.000000 
0.520833 12.383678 0.000000 
0.520833 13.035535 0.000000 
0.520833 13.692040 0.000000 
1.562500 10.477667 0.000000 
1.562500 11.103268 0.000000 
1.562500 11.738676 0.000000 
1.562500 12.383678 0.000000 
1.562500 13.035535 0.000000 
1.562500 13.692040 0.000000 
2.604167 10.477667 0.000000 
2.604167 11.103268 0.000000 
2.604167 11.738676 0.000000 
2.604167 12.383678 0.000000 
2.604167 13.035535 0.000000 
2.604167 13.692040 0.000000 
3.645833 10.477667 0.000000 
3.645833 11.103268 0.000000 
3.645833 11.738676 0.000000 
3.645833 12.383678 0.000000 
3.645833 13.035535 0.000000 
3.645833 13.692040 0.000000 
4.687500 10.477667 0.000000 
4.687500 11.103268 0.000000 
4.687500 11.738676 0.000000 
4.687500 12.383678 0.000000 
4.687500 13.035535 0.000000 
4.687500 13.692040 0.000000 
5.729167 10.477667 0.000000 
5.729167 11.103268 0.000000 
5.729167 11.738676 0.000000 
5.729167 12.383678 0.000000 
5.729167 13.035535 0.000000 
5.729167 13.692040 0.000000 
0.520833 14.356551 0.000000 
0.520833 15.030010 0.000000 
0.520833 15.713656 0.000000 
0.520833 16.406297 0.000000 
0.520833 17.108945 0.000000 
0.520833 17.821789 0.000000 
1.562500 14.356551 0.000000 
1.562500 15.030010 0.000000 
1.562500 15.713656 0.000000 
1.562500 16.406297 0.000000 
1.562500 17.108945 0.000000 
1.562500 17.821789 0.000000 
2.604167 14.356551 0.000000 
2.604167 15.030010 0.000000 
2.604167 15.713656 0.000000 
2.604167 16.406297 0.000000 
2.604167 17.108945 0.000000 
2.604167 17.821789 0.000000 
3.645833 14.356551 0.000000 
3.645833 15.030010 0.000000 
3.645833 15.713656 0.000000 
3.645833 16.406297 0.000000 
3.645833 17.108945 0.000000 
3.645833 17.821789 0.000000 
4.687500 14.356551 0.000000 
4.687500 15.030010 0.000000 
4.687500 15.713656 0.000000 
4.687500 16.406297 0.000000 
4.687500 17.108945 0.000000 
4.687500 17.821789 0.000000 
5.729167 14.356551 0.000000 
5.729167 15.030010 0.000000 
5.729167 15.713656 0.000000 
5.729167 16.406297 0.000000 
5.729167 17.108945 0.000000 
5.729167 17.821789 0.000000 
0.520833 18.547817 0.000000 
0.520833 19.285431 0.000000 
0.520833 20.032903 0.000000 
0.520833 20.789698 0.000000 
0.520833 21.558354 0.000000 
0.520833 22.336977 0.000000 
1.562500 18.547817 0.000000 
1.562500 19.285431 0.000000 
1.562500 20.032903 0.000000 
1.562500 20.789698 0.000000 
1.562500 21.558354 0.000000 
1.562500 22.336977 0.000000 
2.604167 18.547817 0.000000 
2.604167 19.285431 0.000000 
2.604167 20.032903 0.000000 
2.604167 20.789698 0.000000 
2.604167 21.558354 0.000000 
2.604167 22.336977 0.000000 
3.645833 18.547817 0.000000 
3.645833 19.285431 0.000000 
3.645833 20.032903 0.000000 
3.645833 20.789698 0.000000 
3.645833 21.558354 0.000000 
3.645833 22.336977 0.000000 
4.687500 18.547817 0.000000 
4.687500 19.285431 0.000000 
4.687500 20.032903 0.000000 
4.687500 20.789698 0.000000 
4.687500 21.558354 0.000000 
4.687500 22.336977 0.000000 
5.729167 18.547817 0.000000 
5.729167 19.285431 0.000000 
5.729167 20.032903 0.000000 
5.729167 20.789698 0.000000 
5.729167 21.558354 0.000000 
5.729167 22.336977 0.000000 
0.520833 23.131592 0.000000 
0.520833 23.944302 0.000000 
0.520833 24.774471 0.000000 
0.520833 25.620209 0.000000 
0.520833 26.478683 0.000000 
0.520833 27.349973 0.000000 
1.562500 23.131592 0.000000 
1.562500 23.944302 0.000000 
1.562500 24.774471 0.000000 
1.562500 25.620209 0.000000 
1.562500 26.478683 0.000000 
1.562500 27.349973 0.000000 
2.604167 23.131592 0.000000 
2.604167 23.944302 0.000000 
2.604167 24.774471 0.000000 
2.604167 25.620209 0.000000 
2.604167 26.478683 0.000000 
2.604167 27.349973 0.000000 
3.645833 23.131592 0.000000 
3.645833 23.944302 0.000000 
3.645833 24.774471 0.000000 
3.645833 25.620209 0.000000 
3.645833 26.478683 0.000000 
3.645833 27.349973 0.000000 
4.687500 23.131592 0.000000 
4.687500 23.944302 0.000000 
4.687500 24.774471 0.000000 
4.687500 25.620209 0.000000 
4.687500 26.478683 0.000000 
4.687500 27.349973 0.000000 
5.729167 23.131592 0.000000 
5.729167 23.944302 0.000000 
5.729167 24.774471 0.000000 
5.729167 25.620209 0.000000 
5.729167 26.478683 0.000000 
5.729167 27.349973 0.000000 
0.520833 28.242508 0.000000 
0.520833 29.158163 0.000000 
0.520833 30.097201 0.000000 
0.520833 31.065228 0.000000 
0.520833 32.053603 0.000000 
0.520833 33.059877 0.000000 
1.562500 28.242508 0.000000 
1.562500 29.158163 0.000000 
1.562500 30.097201 0.000000 
1.562500 31.065228 0.000000 
1.562500 32.053603 0.000000 
1.562500 33.059877 0.000000 
2.604167 28.242508 0.000000 
2.604167 29.158163 0.000000 
2.604167 30.097201 0.000000 
2.604167 31.065228 0.000000 
2.604167 32.053603 0.000000 
2.604167 33.059877 0.000000 
3.645833 28.242508 0.000000 
3.645833 29.158163 0.000000 
3.645833 30.097201 0.000000 
3.645833 31.065228 0.000000 
3.645833 32.053603 0.000000 
3.645833 33.059877 0.000000 
4.687500 28.242508 0.000000 
4.687500 29.158163 0.000000 
4.687500 30.097201 0.000000 
4.687500 31.065228 0.000000 
4.687500 32.053603 0.000000 
4.687500 33.059877 0.000000 
5.729167 28.242508 0.000000 
5.729167 29.158163 0.000000 
5.729167 30.097201 0.000000 
5.729167 31.065228 0.000000 
5.729167 32.053603 0.000000 
5.729167 33.059877 0.000000 

POINT_DATA 288
>>>>>>> Stashed changes
SCALARS sigma_xx FLOAT 1
LOOKUP_TABLE default
0.000000
0.000000
0.000000
<<<<<<< Updated upstream
0.000000
-0.000000
-0.000000
-0.000000
-0.000000
-0.000000
-0.000000
-0.000000
-0.000000
0.000000
0.000000
0.000000
=======
-0.000000
0.000000
-0.000000
>>>>>>> Stashed changes
0.000000
0.000000
0.000000
0.000000
0.000000
0.000000
0.000000
0.000000
0.000000
-0.000000
0.000000
<<<<<<< Updated upstream
-0.000000
0.000000
0.000000
-0.000000
0.000000
-0.000000
=======
0.000000
0.000000
0.000000
>>>>>>> Stashed changes
0.000000
0.000000
0.000000
0.000000
0.000000
<<<<<<< Updated upstream
-0.000000
-0.000000
-0.000000
-0.000000
0.000000
-0.000000
-0.000000
-0.000000
-0.000000
-0.000000
-0.000000
-0.000000
-0.000000
-0.000000
-0.000000
-0.000000
0.000000
-0.000000
-0.000000
-0.000000
-0.000000
-0.000000
-0.000000
-0.000000
-0.000000
-0.000000
-0.000000
-0.000000
-0.000000
-0.000000
-0.000000
-0.000000
-0.000000
-0.000000
-0.000000
-0.000000
-0.000000
-0.000000
-0.000000
-0.000000
-0.000000
-0.000000
-0.000000
-0.000000
-0.000000
-0.000000
-0.000000
-0.000000
-0.000000
-0.000000
-0.000000
-0.000000
-0.000000
-0.000000
-0.000000
-0.000000
-0.000000
-0.000000
-0.000000
-0.000000
-0.000000
-0.000000
-0.000000
-0.000000
-0.000000
-0.000000
-0.000000
-0.000000
-0.000000
-0.000000
-0.000000
-0.000000
-0.000000
-0.000000
-0.000000
-0.000000
-0.000000
-0.000000
-0.000000
-0.000000
-0.000000
-0.000000
-0.000000
-0.000000
-0.000000
-0.000000
-0.000000
0.000000
-0.000000
0.000000
0.000000
-0.000000
-0.000000
-0.000000
-0.000000
-0.000000
-0.000000
-0.000000
-0.000000
-0.000000
-0.000000
-0.000000
-0.000000
-0.000000
0.000000
-0.000000
0.000000
-0.000000
0.000000
-0.000000
0.000000
-0.000000
=======
0.000000
0.000000
0.000000
0.000000
0.000000
0.000000
0.000000
0.000000
0.000000
-0.000000
0.000000
>>>>>>> Stashed changes
-0.000000
-0.000000
-0.000000
-0.000000
-0.000000
-0.000000
-0.000000
-0.000000
<<<<<<< Updated upstream
0.000000
-0.000000
0.000000
-0.000000
0.000000
-0.000000
0.000000
0.000000
-0.000000
0.000000
-0.000000
0.000000
-0.000000
0.000000
=======
-0.000000
-0.000000
-0.000000
-0.000000
-0.000000
-0.000000
>>>>>>> Stashed changes
-0.000000
-0.000000
-0.000000
-0.000000
-0.000000
<<<<<<< Updated upstream
0.000000
-0.000000
0.000000
0.000000
-0.000000
0.000000
-0.000000
0.000000
0.000000
=======
-0.000000
-0.000000
-0.000000
>>>>>>> Stashed changes
-0.000000
-0.000000
-0.000000
-0.000000
-0.000000
-0.000000
-0.000000
-0.000000
-0.000000
-0.000000
-0.000000
<<<<<<< Updated upstream
0.000000
-0.000000
0.000000
=======
-0.000000
>>>>>>> Stashed changes
-0.000000
-0.000000
-0.000000
-0.000000
-0.000000
-0.000000
0.000000
<<<<<<< Updated upstream
-0.000000
-0.000000
-0.000000
0.000000
-0.000000
-0.000000
-0.000000
0.000000
-0.000000
0.000000
0.000000
-0.000000
=======
0.000000
-0.000000
0.000000
0.000000
0.000000
>>>>>>> Stashed changes
0.000000
-0.000000
-0.000000
-0.000000
<<<<<<< Updated upstream
-0.000000
-0.000000
-0.000000
-0.000000
-0.000000
-0.000000
-0.000000
-0.000000
-0.000000
-0.000000
-0.000000
-0.000000
-0.000000
-0.000000
-0.000000
-0.000000
-0.000000
-0.000000
-0.000000
-0.000000
-0.000000
-0.000000
-0.000000
-0.000000
-0.000000
-0.000000
0.000000
-0.000000
-0.000000
-0.000000
-0.000000
-0.000000
-0.000000
-0.000000
-0.000000
-0.000000
-0.000000
-0.000000
-0.000000
-0.000000
-0.000000
-0.000000
-0.000000
-0.000000
-0.000000
-0.000000
-0.000000
-0.000000
-0.000000
-0.000000
0.000000
-0.000000
=======
0.000000
0.000000
>>>>>>> Stashed changes
0.000000
-0.000000
-0.000000
-0.000000
<<<<<<< Updated upstream
-0.000000
-0.000000
-0.000000
-0.000000
-0.000000
-0.000000
-0.000000
0.000000
-0.000000
0.000000
-0.000000
-0.000000
-0.000000
-0.000000
-0.000000
-0.000000
-0.000000
-0.000000
-0.000000
-0.000000
=======
0.000000
0.000000
0.000000
>>>>>>> Stashed changes
-0.000000
-0.000000
-0.000000
0.000000
<<<<<<< Updated upstream
-0.000000
=======
>>>>>>> Stashed changes
0.000000
-0.000000
-0.000000
-0.000000
-0.000000
<<<<<<< Updated upstream
-0.000000
-0.000000
-0.000000
-0.000000
-0.000000
-0.000000
-0.000000
-0.000000
-0.000000
-0.000000
-0.000000
-0.000000
-0.000000
-0.000000
-0.000000
0.000000
-0.000000
-0.000000
-0.000000
-0.000000
-0.000000
-0.000000
-0.000000
-0.000000
-0.000000
-0.000000
-0.000000
-0.000000
-0.000000
-0.000000
=======
0.000000
>>>>>>> Stashed changes
0.000000
-0.000000
-0.000000
-0.000000
<<<<<<< Updated upstream
=======
0.000000
-0.000000
-0.000000
0.000000
0.000000
-0.000000
-0.000000
-0.000000
-0.000000
-0.000000
-0.000000
-0.000000
-0.000000
-0.000000
-0.000000
-0.000000
>>>>>>> Stashed changes
-0.000000
-0.000000
-0.000000
-0.000000
-0.000000
-0.000000
-0.000000
-0.000000
-0.000000
-0.000000
-0.000000
-0.000000
-0.000000
-0.000000
-0.000000
-0.000000
-0.000000
-0.000000
<<<<<<< Updated upstream
0.000000
-0.000000
-0.000000
-0.000000
-0.000000
-0.000000
-0.000000
-0.000000
-0.000000
-0.000000
-0.000000
0.000000
=======
>>>>>>> Stashed changes
-0.000000
-0.000000
-0.000000
-0.000000
<<<<<<< Updated upstream
0.000000
-0.000000
0.000000
-0.000000
-0.000000
-0.000000
-0.000000
-0.000000
-0.000000
-0.000000
-0.000000
-0.000000
-0.000000
-0.000000
-0.000000
-0.000000
-0.000000
-0.000000
-0.000000
-0.000000
0.000000
-0.000000
0.000000
-0.000000
-0.000000
-0.000000
-0.000000
-0.000000
-0.000000
-0.000000
-0.000000
-0.000000
-0.000000
-0.000000
-0.000000
-0.000000
0.000000
-0.000000
-0.000000
-0.000000
-0.000000
-0.000000
-0.000000
-0.000000
-0.000000
-0.000000
-0.000000
-0.000000
-0.000000
-0.000000
-0.000000
-0.000000
-0.000000
-0.000000
-0.000000
-0.000000
-0.000000
-0.000000
-0.000000
-0.000000
-0.000000
-0.000000
-0.000000
-0.000000
-0.000000
-0.000000
-0.000000
-0.000000
0.000000
-0.000000
0.000000
-0.000000
-0.000000
-0.000000
-0.000000
0.000000
-0.000000
-0.000000
-0.000000
-0.000000
-0.000000
-0.000000
-0.000000
-0.000000
-0.000000
-0.000000
-0.000000
-0.000000
-0.000000
-0.000000
-0.000000
-0.000000
-0.000000
-0.000000
-0.000000
-0.000000
-0.000000
-0.000000
-0.000000
-0.000000
-0.000000
-0.000000
-0.000000
-0.000000
-0.000000
-0.000000
-0.000000
-0.000000
-0.000000
-0.000000
-0.000000
-0.000000
-0.000000
-0.000000
-0.000000
-0.000000
-0.000000
-0.000000
-0.000000
-0.000000
-0.000000
-0.000000
-0.000000
-0.000000
-0.000000
-0.000000
-0.000000
-0.000000
-0.000000
-0.000000
-0.000000
-0.000000
-0.000000
-0.000000
-0.000000
-0.000000
-0.000000
-0.000000
-0.000000
-0.000000
-0.000000
-0.000000
-0.000000
-0.000000
-0.000000
-0.000000
-0.000000
-0.000000
-0.000000
-0.000000
-0.000000
-0.000000
-0.000000
-0.000000
-0.000000
-0.000000
-0.000000
-0.000000
-0.000000
-0.000000
-0.000000
-0.000000
-0.000000
-0.000000
-0.000000
-0.000000
-0.000000
-0.000000
-0.000000
-0.000000
-0.000000
-0.000000
-0.000000
-0.000000
-0.000000
-0.000000
-0.000000
-0.000000
-0.000000
-0.000000
-0.000000
-0.000000
-0.000000
-0.000000
-0.000000
-0.000000
-0.000000
-0.000000
-0.000000
-0.000000
0.000000
-0.000000
-0.000000
-0.000000
-0.000000
-0.000000
-0.000000
-0.000000
-0.000000
-0.000000
-0.000000
-0.000000
-0.000000
-0.000000
-0.000000
-0.000000
-0.000000
-0.000000
-0.000000
-0.000000
0.000000
0.000000
-0.000000
-0.000000
-0.000000
-0.000000
-0.000000
-0.000000
-0.000000
-0.000000
-0.000000
-0.000000
-0.000000
-0.000000
-0.000000
-0.000000
-0.000000
-0.000000
-0.000000
-0.000000
-0.000000
-0.000000
-0.000000
-0.000000
-0.000000
-0.000000
-0.000000
-0.000000
-0.000000
-0.000000
-0.000000
-0.000000
-0.000000
-0.000000
-0.000000
-0.000000
-0.000000
-0.000000
-0.000000
-0.000000
-0.000000
-0.000000
-0.000000
-0.000000
-0.000000
-0.000000
-0.000000
-0.000000
-0.000000
-0.000000
-0.000000
-0.000000
-0.000000
-0.000000
-0.000000
-0.000000
-0.000000
-0.000000
-0.000000
-0.000000
-0.000000
-0.000000
-0.000000
-0.000000
-0.000000
-0.000000
-0.000000
-0.000000
-0.000000
-0.000000
-0.000000
-0.000000
-0.000000
-0.000000
-0.000000
-0.000000
-0.000000
-0.000000
-0.000000
0.000000
-0.000000
0.000000
-0.000000
-0.000000
-0.000000
-0.000000
-0.000000
-0.000000
-0.000000
-0.000000
-0.000000
-0.000000
-0.000000
-0.000000
0.000000
-0.000000
0.000000
-0.000000
0.000000
-0.000000
0.000000
-0.000000
-0.000000
-0.000000
-0.000000
-0.000000
-0.000000
-0.000000
-0.000000
-0.000000
-0.000000
-0.000000
-0.000000
-0.000000
-0.000000
-0.000000
-0.000000
-0.000000
0.000000
-0.000000
0.000000
-0.000000
-0.000000
-0.000000
-0.000000
0.000000
-0.000000
-0.000000
-0.000000
-0.000000
0.000000
-0.000000
-0.000000
-0.000000
-0.000000
-0.000000
-0.000000
-0.000000
-0.000000
-0.000000
-0.000000
-0.000000
-0.000000
-0.000000
-0.000000
-0.000000
-0.000000
-0.000000
-0.000000
-0.000000
-0.000000
-0.000000
-0.000000
-0.000000
-0.000000
-0.000000
-0.000000
-0.000000
-0.000000
-0.000000
-0.000000
-0.000000
-0.000000
-0.000000
-0.000000
-0.000000
-0.000000
-0.000000
-0.000000
-0.000000
-0.000000
-0.000000
-0.000000
-0.000000
-0.000000
-0.000000
-0.000000
-0.000000
-0.000000
-0.000000
-0.000000
-0.000000
-0.000000
-0.000000
-0.000000
-0.000000
-0.000000
-0.000000
-0.000000
-0.000000
-0.000000
-0.000000
-0.000000
-0.000000
-0.000000
-0.000000
-0.000000
-0.000000
-0.000000
-0.000000
-0.000000
-0.000000
-0.000000
-0.000000
-0.000000
-0.000000
-0.000000
-0.000000
-0.000000
-0.000000
-0.000000
-0.000000
-0.000000
-0.000000
-0.000000
-0.000000
-0.000000
-0.000000
-0.000000
-0.000000
-0.000000
-0.000000
-0.000000
-0.000000
-0.000000
-0.000000
-0.000000
-0.000000
-0.000000
-0.000000
-0.000000
-0.000000
-0.000000
-0.000000
-0.000000
-0.000000
-0.000000
-0.000000
-0.000000
-0.000000
-0.000000
-0.000000
-0.000000
-0.000000
-0.000000
-0.000000
-0.000000
-0.000000
-0.000000
-0.000000
-0.000000
-0.000000
-0.000000
-0.000000
-0.000000
-0.000000
-0.000000
-0.000000
-0.000000
-0.000000
-0.000000
-0.000000
-0.000000
-0.000000
-0.000000
-0.000000
-0.000000
-0.000000
-0.000000
-0.000000
0.000000
-0.000000
0.000000
-0.000000
-0.000000
-0.000000
-0.000000
-0.000000
-0.000000
-0.000000
-0.000000
-0.000000
-0.000000
-0.000000
-0.000000
-0.000000
-0.000000
-0.000000
-0.000000
-0.000000
-0.000000
-0.000000
-0.000000
-0.000000
0.000000
-0.000000
0.000000
-0.000000
-0.000000
-0.000000
-0.000000
-0.000000
-0.000000
-0.000000
-0.000000
-0.000000
-0.000000
-0.000000
-0.000000
-0.000000
-0.000000
-0.000000
-0.000000
-0.000000
-0.000000
-0.000000
-0.000000
-0.000000
0.000000
-0.000000
0.000000
-0.000000
-0.000000
-0.000000
-0.000000
-0.000000
-0.000000
-0.000000
-0.000000
-0.000000
-0.000000
-0.000000
-0.000000
-0.000000
-0.000000
-0.000000
-0.000000
-0.000000
-0.000000
-0.000000
-0.000000
-0.000000
-0.000000
-0.000000
-0.000000
-0.000000
-0.000000
-0.000000
-0.000000
-0.000000
-0.000000
-0.000000
-0.000000
-0.000000
-0.000000
0.000000
-0.000000
-0.000000
-0.000000
-0.000000
-0.000000
-0.000000
-0.000000
-0.000000
-0.000000
-0.000000
-0.000000
-0.000000
-0.000000
-0.000000
-0.000000
-0.000000
-0.000000
-0.000000
-0.000000
-0.000000
-0.000000
-0.000000
0.000000
-0.000000
-0.000000
0.000000
-0.000000
-0.000000
-0.000000
-0.000000
-0.000000
-0.000000
-0.000000
0.000000
-0.000000
-0.000000
-0.000000
-0.000000
-0.000000
-0.000000
-0.000000
-0.000000
-0.000000
-0.000000
-0.000000
-0.000000
-0.000000
-0.000000
-0.000000
-0.000000
-0.000000
-0.000000
-0.000000
-0.000000
-0.000000
-0.000000
-0.000000
-0.000000
-0.000000
-0.000000
-0.000000
-0.000000
-0.000000
-0.000000
-0.000000
-0.000000
-0.000000
-0.000000
-0.000000
-0.000000
-0.000000
-0.000000
-0.000000
-0.000000
-0.000000
-0.000000
-0.000000
-0.000000
-0.000000
-0.000000
-0.000000
-0.000000
-0.000000
-0.000000
-0.000000
-0.000000
-0.000000
-0.000000
-0.000000
-0.000000
-0.000000
-0.000000
-0.000000
-0.000000
-0.000000
-0.000000
0.000000
-0.000000
-0.000000
-0.000000
-0.000000
-0.000000