# vtk DataFile Version 2.0
MATLAB generated vtk file, WMC
ASCII
DATASET UNSTRUCTURED_GRID
POINTS 576 double
0.130208 0.039906 0.000000 
0.130208 0.119718 0.000000 
0.130208 0.199531 0.000000 
0.390625 0.039906 0.000000 
0.390625 0.119718 0.000000 
0.390625 0.199531 0.000000 
0.651042 0.039906 0.000000 
0.651042 0.119718 0.000000 
0.651042 0.199531 0.000000 
0.130208 0.279428 0.000000 
0.130208 0.359592 0.000000 
0.130208 0.439988 0.000000 
0.390625 0.279428 0.000000 
0.390625 0.359592 0.000000 
0.390625 0.439988 0.000000 
0.651042 0.279428 0.000000 
0.651042 0.359592 0.000000 
0.651042 0.439988 0.000000 
0.130208 0.520616 0.000000 
0.130208 0.601540 0.000000 
0.130208 0.682729 0.000000 
0.390625 0.520616 0.000000 
0.390625 0.601540 0.000000 
0.390625 0.682729 0.000000 
0.651042 0.520616 0.000000 
0.651042 0.601540 0.000000 
0.651042 0.682729 0.000000 
0.130208 0.764185 0.000000 
0.130208 0.845916 0.000000 
0.130208 0.927852 0.000000 
0.390625 0.764185 0.000000 
0.390625 0.845916 0.000000 
0.390625 0.927852 0.000000 
0.651042 0.764185 0.000000 
0.651042 0.845916 0.000000 
0.651042 0.927852 0.000000 
0.130208 1.010009 0.000000 
0.130208 1.092414 0.000000 
0.130208 1.175052 0.000000 
0.390625 1.010009 0.000000 
0.390625 1.092414 0.000000 
0.390625 1.175052 0.000000 
0.651042 1.010009 0.000000 
0.651042 1.092414 0.000000 
0.651042 1.175052 0.000000 
0.130208 1.257932 0.000000 
0.130208 1.341072 0.000000 
0.130208 1.424472 0.000000 
0.390625 1.257932 0.000000 
0.390625 1.341072 0.000000 
0.390625 1.424472 0.000000 
0.651042 1.257932 0.000000 
0.651042 1.341072 0.000000 
0.651042 1.424472 0.000000 
0.130208 1.508149 0.000000 
0.130208 1.592107 0.000000 
0.130208 1.676309 0.000000 
0.390625 1.508149 0.000000 
0.390625 1.592107 0.000000 
0.390625 1.676309 0.000000 
0.651042 1.508149 0.000000 
0.651042 1.592107 0.000000 
0.651042 1.676309 0.000000 
0.130208 1.760747 0.000000 
0.130208 1.845442 0.000000 
0.130208 1.930399 0.000000 
0.390625 1.760747 0.000000 
0.390625 1.845442 0.000000 
0.390625 1.930399 0.000000 
0.651042 1.760747 0.000000 
0.651042 1.845442 0.000000 
0.651042 1.930399 0.000000 
0.130208 2.015609 0.000000 
0.130208 2.101116 0.000000 
0.130208 2.186864 0.000000 
0.390625 2.015609 0.000000 
0.390625 2.101116 0.000000 
0.390625 2.186864 0.000000 
0.651042 2.015609 0.000000 
0.651042 2.101116 0.000000 
0.651042 2.186864 0.000000 
0.130208 2.272920 0.000000 
0.130208 2.359282 0.000000 
0.130208 2.445876 0.000000 
0.390625 2.272920 0.000000 
0.390625 2.359282 0.000000 
0.390625 2.445876 0.000000 
0.651042 2.272920 0.000000 
0.651042 2.359282 0.000000 
0.651042 2.445876 0.000000 
0.130208 2.532758 0.000000 
0.130208 2.619911 0.000000 
0.130208 2.707332 0.000000 
0.390625 2.532758 0.000000 
0.390625 2.619911 0.000000 
0.390625 2.707332 0.000000 
0.651042 2.532758 0.000000 
0.651042 2.619911 0.000000 
0.651042 2.707332 0.000000 
0.130208 2.795039 0.000000 
0.130208 2.883068 0.000000 
0.130208 2.971352 0.000000 
0.390625 2.795039 0.000000 
0.390625 2.883068 0.000000 
0.390625 2.971352 0.000000 
0.651042 2.795039 0.000000 
0.651042 2.883068 0.000000 
0.651042 2.971352 0.000000 
0.130208 3.059966 0.000000 
0.130208 3.148892 0.000000 
0.130208 3.238100 0.000000 
0.390625 3.059966 0.000000 
0.390625 3.148892 0.000000 
0.390625 3.238100 0.000000 
0.651042 3.059966 0.000000 
0.651042 3.148892 0.000000 
0.651042 3.238100 0.000000 
0.130208 3.327619 0.000000 
0.130208 3.417430 0.000000 
0.130208 3.507503 0.000000 
0.390625 3.327619 0.000000 
0.390625 3.417430 0.000000 
0.390625 3.507503 0.000000 
0.651042 3.327619 0.000000 
0.651042 3.417430 0.000000 
0.651042 3.507503 0.000000 
0.130208 3.597892 0.000000 
0.130208 3.688620 0.000000 
0.130208 3.779664 0.000000 
0.390625 3.597892 0.000000 
0.390625 3.688620 0.000000 
0.390625 3.779664 0.000000 
0.651042 3.597892 0.000000 
0.651042 3.688620 0.000000 
0.651042 3.779664 0.000000 
0.130208 3.871018 0.000000 
0.130208 3.962751 0.000000 
0.130208 4.054728 0.000000 
0.390625 3.871018 0.000000 
0.390625 3.962751 0.000000 
0.390625 4.054728 0.000000 
0.651042 3.871018 0.000000 
0.651042 3.962751 0.000000 
0.651042 4.054728 0.000000 
0.130208 4.147017 0.000000 
0.130208 4.239675 0.000000 
0.130208 4.332674 0.000000 
0.390625 4.147017 0.000000 
0.390625 4.239675 0.000000 
0.390625 4.332674 0.000000 
0.651042 4.147017 0.000000 
0.651042 4.239675 0.000000 
0.651042 4.332674 0.000000 
0.130208 4.425964 0.000000 
0.130208 4.519619 0.000000 
0.130208 4.613599 0.000000 
0.390625 4.425964 0.000000 
0.390625 4.519619 0.000000 
0.390625 4.613599 0.000000 
0.651042 4.425964 0.000000 
0.651042 4.519619 0.000000 
0.651042 4.613599 0.000000 
0.130208 4.707961 0.000000 
0.130208 4.802616 0.000000 
0.130208 4.897670 0.000000 
0.390625 4.707961 0.000000 
0.390625 4.802616 0.000000 
0.390625 4.897670 0.000000 
0.651042 4.707961 0.000000 
0.651042 4.802616 0.000000 
0.651042 4.897670 0.000000 
0.130208 4.993044 0.000000 
0.130208 5.088746 0.000000 
0.130208 5.184844 0.000000 
0.390625 4.993044 0.000000 
0.390625 5.088746 0.000000 
0.390625 5.184844 0.000000 
0.651042 4.993044 0.000000 
0.651042 5.088746 0.000000 
0.651042 5.184844 0.000000 
0.130208 5.281324 0.000000 
0.130208 5.378161 0.000000 
0.130208 5.475350 0.000000 
0.390625 5.281324 0.000000 
0.390625 5.378161 0.000000 
0.390625 5.475350 0.000000 
0.651042 5.281324 0.000000 
0.651042 5.378161 0.000000 
0.651042 5.475350 0.000000 
0.130208 5.572956 0.000000 
0.130208 5.670889 0.000000 
0.130208 5.769190 0.000000 
0.390625 5.572956 0.000000 
0.390625 5.670889 0.000000 
0.390625 5.769190 0.000000 
0.651042 5.572956 0.000000 
0.651042 5.670889 0.000000 
0.651042 5.769190 0.000000 
0.130208 5.867898 0.000000 
0.130208 5.967018 0.000000 
0.130208 6.066489 0.000000 
0.390625 5.867898 0.000000 
0.390625 5.967018 0.000000 
0.390625 6.066489 0.000000 
0.651042 5.867898 0.000000 
0.651042 5.967018 0.000000 
0.651042 6.066489 0.000000 
0.130208 6.166363 0.000000 
0.130208 6.266677 0.000000 
0.130208 6.367364 0.000000 
0.390625 6.166363 0.000000 
0.390625 6.266677 0.000000 
0.390625 6.367364 0.000000 
0.651042 6.166363 0.000000 
0.651042 6.266677 0.000000 
0.651042 6.367364 0.000000 
0.130208 6.468473 0.000000 
0.130208 6.569993 0.000000 
0.130208 6.671918 0.000000 
0.390625 6.468473 0.000000 
0.390625 6.569993 0.000000 
0.390625 6.671918 0.000000 
0.651042 6.468473 0.000000 
0.651042 6.569993 0.000000 
0.651042 6.671918 0.000000 
0.130208 6.774245 0.000000 
0.130208 6.877008 0.000000 
0.130208 6.980187 0.000000 
0.390625 6.774245 0.000000 
0.390625 6.877008 0.000000 
0.390625 6.980187 0.000000 
0.651042 6.774245 0.000000 
0.651042 6.877008 0.000000 
0.651042 6.980187 0.000000 
0.130208 7.083838 0.000000 
0.130208 7.187917 0.000000 
0.130208 7.292384 0.000000 
0.390625 7.083838 0.000000 
0.390625 7.187917 0.000000 
0.390625 7.292384 0.000000 
0.651042 7.083838 0.000000 
0.651042 7.187917 0.000000 
0.651042 7.292384 0.000000 
0.130208 7.397365 0.000000 
0.130208 7.502736 0.000000 
0.130208 7.608599 0.000000 
0.390625 7.397365 0.000000 
0.390625 7.502736 0.000000 
0.390625 7.608599 0.000000 
0.651042 7.397365 0.000000 
0.651042 7.502736 0.000000 
0.651042 7.608599 0.000000 
0.130208 7.714935 0.000000 
0.130208 7.821738 0.000000 
0.130208 7.929010 0.000000 
0.390625 7.714935 0.000000 
0.390625 7.821738 0.000000 
0.390625 7.929010 0.000000 
0.651042 7.714935 0.000000 
0.651042 7.821738 0.000000 
0.651042 7.929010 0.000000 
0.130208 8.036735 0.000000 
0.130208 8.144980 0.000000 
0.130208 8.253668 0.000000 
0.390625 8.036735 0.000000 
0.390625 8.144980 0.000000 
0.390625 8.253668 0.000000 
0.651042 8.036735 0.000000 
0.651042 8.144980 0.000000 
0.651042 8.253668 0.000000 
0.130208 8.362890 0.000000 
0.130208 8.472633 0.000000 
0.130208 8.582877 0.000000 
0.390625 8.362890 0.000000 
0.390625 8.472633 0.000000 
0.390625 8.582877 0.000000 
0.651042 8.362890 0.000000 
0.651042 8.472633 0.000000 
0.651042 8.582877 0.000000 
0.130208 8.693601 0.000000 
0.130208 8.804883 0.000000 
0.130208 8.916621 0.000000 
0.390625 8.693601 0.000000 
0.390625 8.804883 0.000000 
0.390625 8.916621 0.000000 
0.651042 8.693601 0.000000 
0.651042 8.804883 0.000000 
0.651042 8.916621 0.000000 
0.130208 9.028964 0.000000 
0.130208 9.141851 0.000000 
0.130208 9.255207 0.000000 
0.390625 9.028964 0.000000 
0.390625 9.141851 0.000000 
0.390625 9.255207 0.000000 
0.651042 9.028964 0.000000 
0.651042 9.141851 0.000000 
0.651042 9.255207 0.000000 
0.130208 9.369175 0.000000 
0.130208 9.483701 0.000000 
0.130208 9.598785 0.000000 
0.390625 9.369175 0.000000 
0.390625 9.483701 0.000000 
0.390625 9.598785 0.000000 
0.651042 9.369175 0.000000 
0.651042 9.483701 0.000000 
0.651042 9.598785 0.000000 
0.130208 9.714393 0.000000 
0.130208 9.830697 0.000000 
0.130208 9.947477 0.000000 
0.390625 9.714393 0.000000 
0.390625 9.830697 0.000000 
0.390625 9.947477 0.000000 
0.651042 9.714393 0.000000 
0.651042 9.830697 0.000000 
0.651042 9.947477 0.000000 
0.130208 10.064813 0.000000 
0.130208 10.182838 0.000000 
0.130208 10.301445 0.000000 
0.390625 10.064813 0.000000 
0.390625 10.182838 0.000000 
0.390625 10.301445 0.000000 
0.651042 10.064813 0.000000 
0.651042 10.182838 0.000000 
0.651042 10.301445 0.000000 
0.130208 10.420682 0.000000 
0.130208 10.540532 0.000000 
0.130208 10.661028 0.000000 
0.390625 10.420682 0.000000 
0.390625 10.540532 0.000000 
0.390625 10.661028 0.000000 
0.651042 10.420682 0.000000 
0.651042 10.540532 0.000000 
0.651042 10.661028 0.000000 
0.130208 10.782149 0.000000 
0.130208 10.903946 0.000000 
0.130208 11.026393 0.000000 
0.390625 10.782149 0.000000 
0.390625 10.903946 0.000000 
0.390625 11.026393 0.000000 
0.651042 10.782149 0.000000 
0.651042 10.903946 0.000000 
0.651042 11.026393 0.000000 
0.130208 11.149533 0.000000 
0.130208 11.273385 0.000000 
0.130208 11.397886 0.000000 
0.390625 11.149533 0.000000 
0.390625 11.273385 0.000000 
0.390625 11.397886 0.000000 
0.651042 11.149533 0.000000 
0.651042 11.273385 0.000000 
0.651042 11.397886 0.000000 
0.130208 11.523047 0.000000 
0.130208 11.648957 0.000000 
0.130208 11.775641 0.000000 
0.390625 11.523047 0.000000 
0.390625 11.648957 0.000000 
0.390625 11.775641 0.000000 
0.651042 11.523047 0.000000 
0.651042 11.648957 0.000000 
0.651042 11.775641 0.000000 
0.130208 11.902966 0.000000 
0.130208 12.031050 0.000000 
0.130208 12.159987 0.000000 
0.390625 11.902966 0.000000 
0.390625 12.031050 0.000000 
0.390625 12.159987 0.000000 
0.651042 11.902966 0.000000 
0.651042 12.031050 0.000000 
0.651042 12.159987 0.000000 
0.130208 12.289552 0.000000 
0.130208 12.419924 0.000000 
0.130208 12.551166 0.000000 
0.390625 12.289552 0.000000 
0.390625 12.419924 0.000000 
0.390625 12.551166 0.000000 
0.651042 12.289552 0.000000 
0.651042 12.419924 0.000000 
0.651042 12.551166 0.000000 
0.130208 12.683213 0.000000 
0.130208 12.815873 0.000000 
0.130208 12.949532 0.000000 
0.390625 12.683213 0.000000 
0.390625 12.815873 0.000000 
0.390625 12.949532 0.000000 
0.651042 12.683213 0.000000 
0.651042 12.815873 0.000000 
0.651042 12.949532 0.000000 
0.130208 13.084042 0.000000 
0.130208 13.219361 0.000000 
0.130208 13.355585 0.000000 
0.390625 13.084042 0.000000 
0.390625 13.219361 0.000000 
0.390625 13.355585 0.000000 
0.651042 13.084042 0.000000 
0.651042 13.219361 0.000000 
0.651042 13.355585 0.000000 
0.130208 13.492685 0.000000 
0.130208 13.630719 0.000000 
0.130208 13.769543 0.000000 
0.390625 13.492685 0.000000 
0.390625 13.630719 0.000000 
0.390625 13.769543 0.000000 
0.651042 13.492685 0.000000 
0.651042 13.630719 0.000000 
0.651042 13.769543 0.000000 
0.130208 13.909414 0.000000 
0.130208 14.050237 0.000000 
0.130208 14.192056 0.000000 
0.390625 13.909414 0.000000 
0.390625 14.050237 0.000000 
0.390625 14.192056 0.000000 
0.651042 13.909414 0.000000 
0.651042 14.050237 0.000000 
0.651042 14.192056 0.000000 
0.130208 14.334763 0.000000 
0.130208 14.478450 0.000000 
0.130208 14.623258 0.000000 
0.390625 14.334763 0.000000 
0.390625 14.478450 0.000000 
0.390625 14.623258 0.000000 
0.651042 14.334763 0.000000 
0.651042 14.478450 0.000000 
0.651042 14.623258 0.000000 
0.130208 14.769130 0.000000 
0.130208 14.915994 0.000000 
0.130208 15.063936 0.000000 
0.390625 14.769130 0.000000 
0.390625 14.915994 0.000000 
0.390625 15.063936 0.000000 
0.651042 14.769130 0.000000 
0.651042 14.915994 0.000000 
0.651042 15.063936 0.000000 
0.130208 15.212996 0.000000 
0.130208 15.363206 0.000000 
0.130208 15.514447 0.000000 
0.390625 15.212996 0.000000 
0.390625 15.363206 0.000000 
0.390625 15.514447 0.000000 
0.651042 15.212996 0.000000 
0.651042 15.363206 0.000000 
0.651042 15.514447 0.000000 
0.130208 15.667018 0.000000 
0.130208 15.820752 0.000000 
0.130208 15.975535 0.000000 
0.390625 15.667018 0.000000 
0.390625 15.820752 0.000000 
0.390625 15.975535 0.000000 
0.651042 15.667018 0.000000 
0.651042 15.820752 0.000000 
0.651042 15.975535 0.000000 
0.130208 16.131649 0.000000 
0.130208 16.289170 0.000000 
0.130208 16.447801 0.000000 
0.390625 16.131649 0.000000 
0.390625 16.289170 0.000000 
0.390625 16.447801 0.000000 
0.651042 16.131649 0.000000 
0.651042 16.289170 0.000000 
0.651042 16.447801 0.000000 
0.130208 16.607795 0.000000 
0.130208 16.769258 0.000000 
0.130208 16.931970 0.000000 
0.390625 16.607795 0.000000 
0.390625 16.769258 0.000000 
0.390625 16.931970 0.000000 
0.651042 16.607795 0.000000 
0.651042 16.769258 0.000000 
0.651042 16.931970 0.000000 
0.130208 17.096244 0.000000 
0.130208 17.261874 0.000000 
0.130208 17.429045 0.000000 
0.390625 17.096244 0.000000 
0.390625 17.261874 0.000000 
0.390625 17.429045 0.000000 
0.651042 17.096244 0.000000 
0.651042 17.261874 0.000000 
0.651042 17.429045 0.000000 
0.130208 17.597650 0.000000 
0.130208 17.767898 0.000000 
0.130208 17.939738 0.000000 
0.390625 17.597650 0.000000 
0.390625 17.767898 0.000000 
0.390625 17.939738 0.000000 
0.651042 17.597650 0.000000 
0.651042 17.767898 0.000000 
0.651042 17.939738 0.000000 
0.130208 18.113295 0.000000 
0.130208 18.288601 0.000000 
0.130208 18.465541 0.000000 
0.390625 18.113295 0.000000 
0.390625 18.288601 0.000000 
0.390625 18.465541 0.000000 
0.651042 18.113295 0.000000 
0.651042 18.288601 0.000000 
0.651042 18.465541 0.000000 
0.130208 18.644380 0.000000 
0.130208 18.825036 0.000000 
0.130208 19.007232 0.000000 
0.390625 18.644380 0.000000 
0.390625 18.825036 0.000000 
0.390625 19.007232 0.000000 
0.651042 18.644380 0.000000 
0.651042 18.825036 0.000000 
0.651042 19.007232 0.000000 
0.130208 19.191686 0.000000 
0.130208 19.378120 0.000000 
0.130208 19.566478 0.000000 
0.390625 19.191686 0.000000 
0.390625 19.378120 0.000000 
0.390625 19.566478 0.000000 
0.651042 19.191686 0.000000 
0.651042 19.378120 0.000000 
0.651042 19.566478 0.000000 
0.130208 19.757108 0.000000 
0.130208 19.949835 0.000000 
0.130208 20.144897 0.000000 
0.390625 19.757108 0.000000 
0.390625 19.949835 0.000000 
0.390625 20.144897 0.000000 
0.651042 19.757108 0.000000 
0.651042 19.949835 0.000000 
0.651042 20.144897 0.000000 
0.130208 20.342349 0.000000 
0.130208 20.542457 0.000000 
0.130208 20.744670 0.000000 
0.390625 20.342349 0.000000 
0.390625 20.542457 0.000000 
0.390625 20.744670 0.000000 
0.651042 20.342349 0.000000 
0.651042 20.542457 0.000000 
0.651042 20.744670 0.000000 
0.130208 20.949326 0.000000 
0.130208 21.157108 0.000000 
0.130208 21.367468 0.000000 
0.390625 20.949326 0.000000 
0.390625 21.157108 0.000000 
0.390625 21.367468 0.000000 
0.651042 20.949326 0.000000 
0.651042 21.157108 0.000000 
0.651042 21.367468 0.000000 
0.130208 21.580653 0.000000 
0.130208 21.797059 0.000000 
0.130208 22.016491 0.000000 
0.390625 21.580653 0.000000 
0.390625 21.797059 0.000000 
0.390625 22.016491 0.000000 
0.651042 21.580653 0.000000 
0.651042 21.797059 0.000000 
0.651042 22.016491 0.000000 
0.130208 22.238972 0.000000 
0.130208 22.465125 0.000000 
0.130208 22.695240 0.000000 
0.390625 22.238972 0.000000 
0.390625 22.465125 0.000000 
0.390625 22.695240 0.000000 
0.651042 22.238972 0.000000 
0.651042 22.465125 0.000000 
0.651042 22.695240 0.000000 
0.130208 22.928133 0.000000 
0.130208 23.165349 0.000000 
0.130208 23.408302 0.000000 
0.390625 22.928133 0.000000 
0.390625 23.165349 0.000000 
0.390625 23.408302 0.000000 
0.651042 22.928133 0.000000 
0.651042 23.165349 0.000000 
0.651042 23.408302 0.000000 
0.130208 23.654325 0.000000 
0.130208 23.904424 0.000000 
0.130208 24.155884 0.000000 
0.390625 23.654325 0.000000 
0.390625 23.904424 0.000000 
0.390625 24.155884 0.000000 
0.651042 23.654325 0.000000 
0.651042 23.904424 0.000000 
0.651042 24.155884 0.000000 

POINT_DATA 576
SCALARS sigma_xx FLOAT 1
LOOKUP_TABLE default
0.000000
0.000000
-0.000000
0.000000
0.000000
-0.000000
0.000000
0.000000
-0.000000
0.000000
-0.000000
-0.000000
0.000000
-0.000000
-0.000000
0.000000
-0.000000
-0.000000
-0.000000
-0.000000
-0.000000
-0.000000
-0.000000
-0.000000
-0.000000
-0.000000
-0.000000
0.000000
-0.000000
-0.000000
0.000000
-0.000000
-0.000000
0.000000
-0.000000
-0.000000
-0.000000
-0.000000
-0.000000
-0.000000
-0.000000
-0.000000
-0.000000
-0.000000
-0.000000
-0.000000
-0.000000
-0.000000
-0.000000
-0.000000
-0.000000
-0.000000
-0.000000
-0.000000
-0.000000
-0.000000
-0.000000
-0.000000
-0.000000
-0.000000
-0.000000
-0.000000
-0.000000
-0.000000
-0.000000
-0.000000
-0.000000
-0.000000
-0.000000
-0.000000
-0.000000
-0.000000
-0.000000
-0.000000
-0.000000
-0.000000
-0.000000
-0.000000
-0.000000
-0.000000
-0.000000
-0.000000
0.000000
-0.000000
-0.000000
0.000000
-0.000000
-0.000000
0.000000
-0.000000
0.000000
-0.000000
-0.000000
0.000000
0.000000
-0.000000
0.000000
0.000000
-0.000000
-0.000000
-0.000000
-0.000000
-0.000000
-0.000000
-0.000000
-0.000000
-0.000000
-0.000000
-0.000000
-0.000000
-0.000000
-0.000000
-0.000000
-0.000000
-0.000000
-0.000000
-0.000000
-0.000000
-0.000000
-0.000000
-0.000000
-0.000000
-0.000000
-0.000000
-0.000000
-0.000000
-0.000000
-0.000000
-0.000000
-0.000000
-0.000000
-0.000000
-0.000000
-0.000000
-0.000000
-0.000000
-0.000000
-0.000000
-0.000000
-0.000000
-0.000000
-0.000000
-0.000000
-0.000000
-0.000000
-0.000000
-0.000000
-0.000000
0.000000
-0.000000
-0.000000
-0.000000
-0.000000
-0.000000
-0.000000
-0.000000
-0.000000
-0.000000
-0.000000
-0.000000
-0.000000
-0.000000
-0.000000
-0.000000
-0.000000
-0.000000
-0.000000
-0.000000
-0.000000
-0.000000
-0.000000
-0.000000
-0.000000
-0.000000
-0.000000
-0.000000
-0.000000
-0.000000
-0.000000
-0.000000
-0.000000
-0.000000
-0.000000
-0.000000
-0.000000
-0.000000
-0.000000
-0.000000
-0.000000
-0.000000
-0.000000
-0.000000
-0.000000
-0.000000
-0.000000
-0.000000
-0.000000
-0.000000
-0.000000
-0.000000
-0.000000
0.000000
-0.000000
-0.000000
-0.000000
-0.000000
-0.000000
-0.000000
-0.000000
-0.000000
-0.000000
-0.000000
-0.000000
-0.000000
-0.000000
-0.000000
-0.000000
-0.000000
-0.000000
-0.000000
-0.000000
-0.000000
-0.000000
-0.000000
-0.000000
-0.000000
0.000000
-0.000000
-0.000000
0.000000
-0.000000
-0.000000
-0.000000
-0.000000
-0.000000
-0.000000
-0.000000
-0.000000
-0.000000
-0.000000
-0.000000
-0.000000
-0.000000
-0.000000
-0.000000
-0.000000
-0.000000
-0.000000
-0.000000
0.000000
-0.000000
-0.000000
-0.000000
-0.000000
-0.000000
-0.000000
-0.000000
-0.000000
-0.000000
-0.000000
-0.000000
-0.000000
-0.000000
-0.000000
-0.000000
-0.000000
-0.000000
-0.000000
-0.000000
-0.000000
-0.000000
-0.000000
-0.000000
-0.000000
-0.000000
-0.000000
-0.000000
-0.000000
-0.000000
-0.000000
-0.000000
-0.000000
-0.000000
-0.000000
-0.000000
-0.000000
-0.000000
-0.000000
-0.000000
-0.000000
-0.000000
-0.000000
-0.000000
-0.000000
-0.000000
-0.000000
-0.000000
-0.000000
-0.000000
-0.000000
-0.000000
-0.000000
-0.000000
-0.000000
-0.000000
-0.000000
-0.000000
-0.000000
-0.000000
0.000000
-0.000000
-0.000000
-0.000000
-0.000000
-0.000000
-0.000000
-0.000000
-0.000000
-0.000000
-0.000000
-0.000000
-0.000000
-0.000000
-0.000000
-0.000000
-0.000000
-0.000000
-0.000000
-0.000000
-0.000000
-0.000000
-0.000000
-0.000000
0.000000
-0.000000
-0.000000
-0.000000
-0.000000
-0.000000
-0.000000
-0.000000
-0.000000
-0.000000
-0.000000
-0.000000
-0.000000
-0.000000
-0.000000
-0.000000
-0.000000
-0.000000
-0.000000
-0.000000
-0.000000
-0.000000
-0.000000
-0.000000
-0.000000
-0.000000
-0.000000
-0.000000
-0.000000
-0.000000
-0.000000
-0.000000
-0.000000
-0.000000
-0.000000
-0.000000
-0.000000
-0.000000
-0.000000
-0.000000
-0.000000
-0.000000
-0.000000
-0.000000
-0.000000
-0.000000
-0.000000
-0.000000
-0.000000
-0.000000
-0.000000
-0.000000
-0.000000
-0.000000
-0.000000
-0.000000
-0.000000
-0.000000
-0.000000
-0.000000
-0.000000
-0.000000
-0.000000
0.000000
-0.000000
-0.000000
-0.000000
-0.000000
-0.000000
-0.000000
-0.000000
-0.000000
-0.000000
-0.000000
-0.000000
-0.000000
-0.000000
-0.000000
-0.000000
-0.000000
-0.000000
-0.000000
-0.000000
-0.000000
-0.000000
-0.000000
-0.000000
-0.000000
-0.000000
-0.000000
-0.000000
-0.000000
-0.000000
-0.000000
-0.000000
-0.000000
-0.000000
-0.000000
-0.000000
-0.000000
-0.000000
-0.000000
-0.000000
-0.000000
-0.000000
-0.000000
-0.000000
-0.000000
-0.000000
-0.000000
-0.000000
-0.000000
0.000000
-0.000000
-0.000000
0.000000
-0.000000
-0.000000
-0.000000
-0.000000
-0.000000
-0.000000
-0.000000
-0.000000
-0.000000
-0.000000
-0.000000
-0.000000
-0.000000
-0.000000
-0.000000
-0.000000
-0.000000
-0.000000
-0.000000
-0.000000
-0.000000
-0.000000
-0.000000
-0.000000
-0.000000
-0.000000
-0.000000
-0.000000
-0.000000
-0.000000
-0.000000
-0.000000
-0.000000
-0.000000
-0.000000
-0.000000
-0.000000
-0.000000
-0.000000
-0.000000
-0.000000
-0.000000
-0.000000
-0.000000
-0.000000
-0.000000
-0.000000
-0.000000
-0.000000
0.000000
-0.000000
-0.000000
0.000000
-0.000000
-0.000000
-0.000000
-0.000000
-0.000000
-0.000000
-0.000000
-0.000000
-0.000000
-0.000000
-0.000000
-0.000000
-0.000000
-0.000000
-0.000000
-0.000000
-0.000000
-0.000000
-0.000000
-0.000000
-0.000000
-0.000000
-0.000000
-0.000000
-0.000000
-0.000000
-0.000000
-0.000000
-0.000000
-0.000000
-0.000000
-0.000000
-0.000000
-0.000000
-0.000000
-0.000000
-0.000000
-0.000000
-0.000000
-0.000000
-0.000000
-0.000000
-0.000000
-0.000000
-0.000000
-0.000000
-0.000000
-0.000000
-0.000000
-0.000000
-0.000000
-0.000000
-0.000000
-0.000000
-0.000000
-0.000000
-0.000000
-0.000000
-0.000000
-0.000000
0.000000
-0.000000
-0.000000
0.000000
-0.000000
-0.000000
-0.000000
-0.000000
-0.000000
-0.000000
-0.000000
-0.000000
-0.000000
-0.000000

SCALARS sigma_yy FLOAT 1
LOOKUP_TABLE default
-38586.868749
-38586.868749
-38586.868749
-38586.868749
-38586.868749
-38586.868749
-38586.868749
-38586.868749
-38586.868749
-38393.182368
-38162.672069
-37990.543117
-38393.182368
-38162.672069
-37990.543117
-38393.182368
-38162.672069
-37990.543117
-37730.143994
-37494.210091
-37283.892394
-37730.143994
-37494.210091
-37283.892394
-37730.143994
-37494.210091
-37283.892394
-37021.875564
-36830.658896
-36681.306252
-37021.875564
-36830.658896
-36681.306252
-37021.875564
-36830.658896
-36681.306252
-36455.588438
-36261.024372
-36089.187938
-36455.588438
-36261.024372
-36089.187938
-36455.588438
-36261.024372
-36089.187938
-35859.419111
-35648.361172
-35463.639159
-35859.419111
-35648.361172
-35463.639159
-35859.419111
-35648.361172
-35463.639159
-35204.197825
-35017.581705
-34843.585562
-35204.197825
-35017.581705
-34843.585562
-35204.197825
-35017.581705
-34843.585562
-34616.549248
-34442.449989
-34248.074135
-34616.549248
-34442.449989
-34248.074135
-34616.549248
-34442.449989
-34248.074135
-34021.558420
-33826.820632
-33626.437886
-34021.558420
-33826.820632
-33626.437886
-34021.558420
-33826.820632
-33626.437886
-33392.534294
-33186.618154
-33025.720617
-33392.534294
-33186.618154
-33025.720617
-33392.534294
-33186.618154
-33025.720617
-32787.575534
-32616.575693
-32430.234834
-32787.575534
-32616.575693
-32430.234834
-32787.575534
-32616.575693
-32430.234834
-32179.283624
-32006.497482
-31808.143044
-32179.283624
-32006.497482
-31808.143044
-32179.283624
-32006.497482
-31808.143044
-31556.684420
-31363.202328
-31195.235971
-31556.684420
-31363.202328
-31195.235971
-31556.684420
-31363.202328
-31195.235971
-30931.044252
-30800.902512
-30601.797874
-30931.044252
-30800.902512
-30601.797874
-30931.044252
-30800.902512
-30601.797874
-30360.083290
-30157.477550
-29979.780318
-30360.083290
-30157.477550
-29979.780318
-30360.083290
-30157.477550
-29979.780318
-29715.415669
-29566.288455
-29366.279582
-29715.415669
-29566.288455
-29366.279582
-29715.415669
-29566.288455
-29366.279582
-29156.369105
-28925.680082
-28758.299030
-29156.369105
-28925.680082
-28758.299030
-29156.369105
-28925.680082
-28758.299030
-28553.486143
-28318.805643
-28141.956261
-28553.486143
-28318.805643
-28141.956261
-28553.486143
-28318.805643
-28141.956261
-27923.284918
-27725.656027
-27526.088733
-27923.284918
-27725.656027
-27526.088733
-27923.284918
-27725.656027
-27526.088733
-27331.532219
-27127.923812
-26923.201249
-27331.532219
-27127.923812
-26923.201249
-27331.532219
-27127.923812
-26923.201249
-26678.151491
-26513.532563
-26304.715400
-26678.151491
-26513.532563
-26304.715400
-26678.151491
-26513.532563
-26304.715400
-26074.977860
-25919.867135
-25719.952079
-26074.977860
-25919.867135
-25719.952079
-26074.977860
-25919.867135
-25719.952079
-25462.635862
-25301.934620
-25093.954659
-25462.635862
-25301.934620
-25093.954659
-25462.635862
-25301.934620
-25093.954659
-24864.545628
-24674.606027
-24479.434083
-24864.545628
-24674.606027
-24479.434083
-24864.545628
-24674.606027
-24479.434083
-24264.680158
-24049.352074
-23887.699537
-24264.680158
-24049.352074
-23887.699537
-24264.680158
-24049.352074
-23887.699537
-23660.355951
-23467.983556
-23263.704928
-23660.355951
-23467.983556
-23263.704928
-23660.355951
-23467.983556
-23263.704928
-23036.262428
-22862.264117
-22653.503696
-23036.262428
-22862.264117
-22653.503696
-23036.262428
-22862.264117
-22653.503696
-22445.724479
-22248.370300
-22061.450256
-22445.724479
-22248.370300
-22061.450256
-22445.724479
-22248.370300
-22061.450256
-21805.730164
-21644.592218
-21450.595534
-21805.730164
-21644.592218
-21450.595534
-21805.730164
-21644.592218
-21450.595534
-21208.303272
-21037.118332
-20827.896814
-21208.303272
-21037.118332
-20827.896814
-21208.303272
-21037.118332
-20827.896814
-20601.650401
-20401.156304
-20226.674910
-20601.650401
-20401.156304
-20226.674910
-20601.650401
-20401.156304
-20226.674910
-20001.442462
-19803.861887
-19618.307092
-20001.442462
-19803.861887
-19618.307092
-20001.442462
-19803.861887
-19618.307092
-19360.931301
-19207.352675
-19012.839547
-19360.931301
-19207.352675
-19012.839547
-19360.931301
-19207.352675
-19012.839547
-18750.470299
-18598.865796
-18386.368087
-18750.470299
-18598.865796
-18386.368087
-18750.470299
-18598.865796
-18386.368087
-18169.941668
-17953.313330
-17803.662248
-18169.941668
-17953.313330
-17803.662248
-18169.941668
-17953.313330
-17803.662248
-17571.703186
-17355.766341
-17182.734131
-17571.703186
-17355.766341
-17182.734131
-17571.703186
-17355.766341
-17182.734131
-16958.749928
-16755.615487
-16558.087714
-16958.749928
-16755.615487
-16558.087714
-16958.749928
-16755.615487
-16558.087714
-16361.880427
-16125.326048
-15969.834185
-16361.880427
-16125.326048
-15969.834185
-16361.880427
-16125.326048
-15969.834185
-15717.945194
-15528.211141
-15347.570049
-15717.945194
-15528.211141
-15347.570049
-15717.945194
-15528.211141
-15347.570049
-15134.432255
-14924.864290
-14722.995577
-15134.432255
-14924.864290
-14722.995577
-15134.432255
-14924.864290
-14722.995577
-14530.913792
-14308.682478
-14124.206450
-14530.913792
-14308.682478
-14124.206450
-14530.913792
-14308.682478
-14124.206450
-13917.041460
-13716.986633
-13490.744700
-13917.041460
-13716.986633
-13490.744700
-13917.041460
-13716.986633
-13490.744700
-13311.941435
-13123.034948
-12894.182354
-13311.941435
-13123.034948
-12894.182354
-13311.941435
-13123.034948
-12894.182354
-12695.895105
-12489.545567
-12292.573592
-12695.895105
-12489.545567
-12292.573592
-12695.895105
-12489.545567
-12292.573592
-12071.187148
-11898.984046
-11683.406952
-12071.187148
-11898.984046
-11683.406952
-12071.187148
-11898.984046
-11683.406952
-11468.309210
-11267.466713
-11066.783456
-11468.309210
-11267.466713
-11066.783456
-11468.309210
-11267.466713
-11066.783456
-10876.485337
-10665.586636
-10458.494161
-10876.485337
-10665.586636
-10458.494161
-10876.485337
-10665.586636
-10458.494161
-10240.751009
-10059.153079
-9850.934250
-10240.751009
-10059.153079
-9850.934250
-10240.751009
-10059.153079
-9850.934250
-9644.953674
-9444.735392
-9252.092091
-9644.953674
-9444.735392
-9252.092091
-9644.953674
-9444.735392
-9252.092091
-9009.794031
-8848.116598
-8647.072026
-9009.794031
-8848.116598
-8647.072026
-9009.794031
-8848.116598
-8647.072026
-8424.093811
-8211.452247
-8045.403633
-8424.093811
-8211.452247
-8045.403633
-8424.093811
-8211.452247
-8045.403633
-7817.287181
-7619.667283
-7417.117636
-7817.287181
-7619.667283
-7417.117636
-7817.287181
-7619.667283
-7417.117636
-7203.717132
-7008.873358
-6820.190634
-7203.717132
-7008.873358
-6820.190634
-7203.717132
-7008.873358
-6820.190634
-6599.415649
-6412.904142
-6182.111842
-6599.415649
-6412.904142
-6182.111842
-6599.415649
-6412.904142
-6182.111842
-5988.226115
-5784.517900
-5580.587734
-5988.226115
-5784.517900
-5580.587734
-5988.226115
-5784.517900
-5580.587734
-5366.041083
-5195.443023
-4986.145450
-5366.041083
-5195.443023
-4986.145450
-5366.041083
-5195.443023
-4986.145450
-4772.975762
-4562.416179
-4386.181034
-4772.975762
-4562.416179
-4386.181034
-4772.975762
-4562.416179
-4386.181034
-4163.139289
-3953.211620
-3758.357695
-4163.139289
-3953.211620
-3758.357695
-4163.139289
-3953.211620
-3758.357695
-3539.031110
-3337.362356
-3167.702395
-3539.031110
-3337.362356
-3167.702395
-3539.031110
-3337.362356
-3167.702395
-2953.967307
-2718.291080
-2563.660043
-2953.967307
-2718.291080
-2563.660043
-2953.967307
-2718.291080
-2563.660043
-2335.952068
-2117.343079
-1949.422205
-2335.952068
-2117.343079
-1949.422205
-2335.952068
-2117.343079
-1949.422205
-1735.349154
-1499.336418
-1330.190482
-1735.349154
-1499.336418
-1330.190482
-1735.349154