# vtk DataFile Version 2.0
MATLAB generated vtk file, WMC
ASCII
DATASET UNSTRUCTURED_GRID
<<<<<<< Updated upstream
POINTS 2048 double
0.024414 0.011202 0.000000 
0.024414 0.033605 0.000000 
0.073242 0.011202 0.000000 
0.073242 0.033605 0.000000 
0.024414 0.056011 0.000000 
0.024414 0.078431 0.000000 
0.073242 0.056011 0.000000 
0.073242 0.078431 0.000000 
0.024414 0.100862 0.000000 
0.024414 0.123302 0.000000 
0.073242 0.100862 0.000000 
0.073242 0.123302 0.000000 
0.024414 0.145751 0.000000 
0.024414 0.168210 0.000000 
0.073242 0.145751 0.000000 
0.073242 0.168210 0.000000 
0.024414 0.190679 0.000000 
0.024414 0.213158 0.000000 
0.073242 0.190679 0.000000 
0.073242 0.213158 0.000000 
0.024414 0.235646 0.000000 
0.024414 0.258144 0.000000 
0.073242 0.235646 0.000000 
0.073242 0.258144 0.000000 
0.024414 0.280652 0.000000 
0.024414 0.303170 0.000000 
0.073242 0.280652 0.000000 
0.073242 0.303170 0.000000 
0.024414 0.325697 0.000000 
0.024414 0.348234 0.000000 
0.073242 0.325697 0.000000 
0.073242 0.348234 0.000000 
0.024414 0.370781 0.000000 
0.024414 0.393337 0.000000 
0.073242 0.370781 0.000000 
0.073242 0.393337 0.000000 
0.024414 0.415903 0.000000 
0.024414 0.438479 0.000000 
0.073242 0.415903 0.000000 
0.073242 0.438479 0.000000 
0.024414 0.461065 0.000000 
0.024414 0.483660 0.000000 
0.073242 0.461065 0.000000 
0.073242 0.483660 0.000000 
0.024414 0.506266 0.000000 
0.024414 0.528881 0.000000 
0.073242 0.506266 0.000000 
0.073242 0.528881 0.000000 
0.024414 0.551506 0.000000 
0.024414 0.574140 0.000000 
0.073242 0.551506 0.000000 
0.073242 0.574140 0.000000 
0.024414 0.596785 0.000000 
0.024414 0.619440 0.000000 
0.073242 0.596785 0.000000 
0.073242 0.619440 0.000000 
0.024414 0.642104 0.000000 
0.024414 0.664778 0.000000 
0.073242 0.642104 0.000000 
0.073242 0.664778 0.000000 
0.024414 0.687463 0.000000 
0.024414 0.710157 0.000000 
0.073242 0.687463 0.000000 
0.073242 0.710157 0.000000 
0.024414 0.732861 0.000000 
0.024414 0.755575 0.000000 
0.073242 0.732861 0.000000 
0.073242 0.755575 0.000000 
0.024414 0.778300 0.000000 
0.024414 0.801033 0.000000 
0.073242 0.778300 0.000000 
0.073242 0.801033 0.000000 
0.024414 0.823778 0.000000 
0.024414 0.846531 0.000000 
0.073242 0.823778 0.000000 
0.073242 0.846531 0.000000 
0.024414 0.869296 0.000000 
0.024414 0.892070 0.000000 
0.073242 0.869296 0.000000 
0.073242 0.892070 0.000000 
0.024414 0.914853 0.000000 
0.024414 0.937647 0.000000 
0.073242 0.914853 0.000000 
0.073242 0.937647 0.000000 
0.024414 0.960450 0.000000 
0.024414 0.983264 0.000000 
0.073242 0.960450 0.000000 
0.073242 0.983264 0.000000 
0.024414 1.006089 0.000000 
0.024414 1.028922 0.000000 
0.073242 1.006089 0.000000 
0.073242 1.028922 0.000000 
0.024414 1.051766 0.000000 
0.024414 1.074620 0.000000 
0.073242 1.051766 0.000000 
0.073242 1.074620 0.000000 
0.024414 1.097484 0.000000 
0.024414 1.120359 0.000000 
0.073242 1.097484 0.000000 
0.073242 1.120359 0.000000 
0.024414 1.143243 0.000000 
0.024414 1.166139 0.000000 
0.073242 1.143243 0.000000 
0.073242 1.166139 0.000000 
0.024414 1.189042 0.000000 
0.024414 1.211957 0.000000 
0.073242 1.189042 0.000000 
0.073242 1.211957 0.000000 
0.024414 1.234883 0.000000 
0.024414 1.257818 0.000000 
0.073242 1.234883 0.000000 
0.073242 1.257818 0.000000 
0.024414 1.280763 0.000000 
0.024414 1.303720 0.000000 
0.073242 1.280763 0.000000 
0.073242 1.303720 0.000000 
0.024414 1.326686 0.000000 
0.024414 1.349663 0.000000 
0.073242 1.326686 0.000000 
0.073242 1.349663 0.000000 
0.024414 1.372649 0.000000 
0.024414 1.395645 0.000000 
0.073242 1.372649 0.000000 
0.073242 1.395645 0.000000 
0.024414 1.418652 0.000000 
0.024414 1.441669 0.000000 
0.073242 1.418652 0.000000 
0.073242 1.441669 0.000000 
0.024414 1.464697 0.000000 
0.024414 1.487734 0.000000 
0.073242 1.464697 0.000000 
0.073242 1.487734 0.000000 
0.024414 1.510784 0.000000 
0.024414 1.533841 0.000000 
0.073242 1.510784 0.000000 
0.073242 1.533841 0.000000 
0.024414 1.556910 0.000000 
0.024414 1.579989 0.000000 
0.073242 1.556910 0.000000 
0.073242 1.579989 0.000000 
0.024414 1.603078 0.000000 
0.024414 1.626179 0.000000 
0.073242 1.603078 0.000000 
0.073242 1.626179 0.000000 
0.024414 1.649290 0.000000 
0.024414 1.672409 0.000000 
0.073242 1.649290 0.000000 
0.073242 1.672409 0.000000 
0.024414 1.695539 0.000000 
0.024414 1.718681 0.000000 
0.073242 1.695539 0.000000 
0.073242 1.718681 0.000000 
0.024414 1.741833 0.000000 
0.024414 1.764995 0.000000 
0.073242 1.741833 0.000000 
0.073242 1.764995 0.000000 
0.024414 1.788168 0.000000 
0.024414 1.811351 0.000000 
0.073242 1.788168 0.000000 
0.073242 1.811351 0.000000 
0.024414 1.834544 0.000000 
0.024414 1.857749 0.000000 
0.073242 1.834544 0.000000 
0.073242 1.857749 0.000000 
0.024414 1.880963 0.000000 
0.024414 1.904189 0.000000 
0.073242 1.880963 0.000000 
0.073242 1.904189 0.000000 
0.024414 1.927425 0.000000 
0.024414 1.950671 0.000000 
0.073242 1.927425 0.000000 
0.073242 1.950671 0.000000 
0.024414 1.973928 0.000000 
0.024414 1.997195 0.000000 
0.073242 1.973928 0.000000 
0.073242 1.997195 0.000000 
0.024414 2.020474 0.000000 
0.024414 2.043761 0.000000 
0.073242 2.020474 0.000000 
0.073242 2.043761 0.000000 
0.024414 2.067061 0.000000 
0.024414 2.090371 0.000000 
0.073242 2.067061 0.000000 
0.073242 2.090371 0.000000 
0.024414 2.113691 0.000000 
0.024414 2.137022 0.000000 
0.073242 2.113691 0.000000 
0.073242 2.137022 0.000000 
0.024414 2.160366 0.000000 
0.024414 2.183717 0.000000 
0.073242 2.160366 0.000000 
0.073242 2.183717 0.000000 
0.024414 2.207079 0.000000 
0.024414 2.230454 0.000000 
0.073242 2.207079 0.000000 
0.073242 2.230454 0.000000 
0.024414 2.253839 0.000000 
0.024414 2.277234 0.000000 
0.073242 2.253839 0.000000 
0.073242 2.277234 0.000000 
0.024414 2.300639 0.000000 
0.024414 2.324057 0.000000 
0.073242 2.300639 0.000000 
0.073242 2.324057 0.000000 
0.024414 2.347484 0.000000 
0.024414 2.370921 0.000000 
0.073242 2.347484 0.000000 
0.073242 2.370921 0.000000 
0.024414 2.394372 0.000000 
0.024414 2.417831 0.000000 
0.073242 2.394372 0.000000 
0.073242 2.417831 0.000000 
0.024414 2.441301 0.000000 
0.024414 2.464782 0.000000 
0.073242 2.441301 0.000000 
0.073242 2.464782 0.000000 
0.024414 2.488275 0.000000 
0.024414 2.511778 0.000000 
0.073242 2.488275 0.000000 
0.073242 2.511778 0.000000 
0.024414 2.535291 0.000000 
0.024414 2.558816 0.000000 
0.073242 2.535291 0.000000 
0.073242 2.558816 0.000000 
0.024414 2.582352 0.000000 
0.024414 2.605898 0.000000 
0.073242 2.582352 0.000000 
0.073242 2.605898 0.000000 
0.024414 2.629455 0.000000 
0.024414 2.653024 0.000000 
0.073242 2.629455 0.000000 
0.073242 2.653024 0.000000 
0.024414 2.676604 0.000000 
0.024414 2.700193 0.000000 
0.073242 2.676604 0.000000 
0.073242 2.700193 0.000000 
0.024414 2.723797 0.000000 
0.024414 2.747409 0.000000 
0.073242 2.723797 0.000000 
0.073242 2.747409 0.000000 
0.024414 2.771031 0.000000 
0.024414 2.794665 0.000000 
0.073242 2.771031 0.000000 
0.073242 2.794665 0.000000 
0.024414 2.818310 0.000000 
0.024414 2.841966 0.000000 
0.073242 2.818310 0.000000 
0.073242 2.841966 0.000000 
0.024414 2.865632 0.000000 
0.024414 2.889311 0.000000 
0.073242 2.865632 0.000000 
0.073242 2.889311 0.000000 
0.024414 2.913001 0.000000 
0.024414 2.936701 0.000000 
0.073242 2.913001 0.000000 
0.073242 2.936701 0.000000 
0.024414 2.960412 0.000000 
0.024414 2.984136 0.000000 
0.073242 2.960412 0.000000 
0.073242 2.984136 0.000000 
0.024414 3.007871 0.000000 
0.024414 3.031614 0.000000 
0.073242 3.007871 0.000000 
0.073242 3.031614 0.000000 
0.024414 3.055369 0.000000 
0.024414 3.079137 0.000000 
0.073242 3.055369 0.000000 
0.073242 3.079137 0.000000 
0.024414 3.102915 0.000000 
0.024414 3.126704 0.000000 
0.073242 3.102915 0.000000 
0.073242 3.126704 0.000000 
0.024414 3.150505 0.000000 
0.024414 3.174316 0.000000 
0.073242 3.150505 0.000000 
0.073242 3.174316 0.000000 
0.024414 3.198141 0.000000 
0.024414 3.221975 0.000000 
0.073242 3.198141 0.000000 
0.073242 3.221975 0.000000 
0.024414 3.245820 0.000000 
0.024414 3.269679 0.000000 
0.073242 3.245820 0.000000 
0.073242 3.269679 0.000000 
0.024414 3.293547 0.000000 
0.024414 3.317425 0.000000 
0.073242 3.293547 0.000000 
0.073242 3.317425 0.000000 
0.024414 3.341316 0.000000 
0.024414 3.365218 0.000000 
0.073242 3.341316 0.000000 
0.073242 3.365218 0.000000 
0.024414 3.389132 0.000000 
0.024414 3.413056 0.000000 
0.073242 3.389132 0.000000 
0.073242 3.413056 0.000000 
0.024414 3.436993 0.000000 
0.024414 3.460941 0.000000 
0.073242 3.436993 0.000000 
0.073242 3.460941 0.000000 
0.024414 3.484900 0.000000 
0.024414 3.508871 0.000000 
0.073242 3.484900 0.000000 
0.073242 3.508871 0.000000 
0.024414 3.532851 0.000000 
0.024414 3.556846 0.000000 
0.073242 3.532851 0.000000 
0.073242 3.556846 0.000000 
0.024414 3.580849 0.000000 
0.024414 3.604865 0.000000 
0.073242 3.580849 0.000000 
0.073242 3.604865 0.000000 
0.024414 3.628893 0.000000 
0.024414 3.652932 0.000000 
0.073242 3.628893 0.000000 
0.073242 3.652932 0.000000 
0.024414 3.676981 0.000000 
0.024414 3.701043 0.000000 
0.073242 3.676981 0.000000 
0.073242 3.701043 0.000000 
0.024414 3.725119 0.000000 
0.024414 3.749203 0.000000 
0.073242 3.725119 0.000000 
0.073242 3.749203 0.000000 
0.024414 3.773301 0.000000 
0.024414 3.797409 0.000000 
0.073242 3.773301 0.000000 
0.073242 3.797409 0.000000 
0.024414 3.821528 0.000000 
0.024414 3.845661 0.000000 
0.073242 3.821528 0.000000 
0.073242 3.845661 0.000000 
0.024414 3.869803 0.000000 
0.024414 3.893957 0.000000 
0.073242 3.869803 0.000000 
0.073242 3.893957 0.000000 
0.024414 3.918125 0.000000 
0.024414 3.942302 0.000000 
0.073242 3.918125 0.000000 
0.073242 3.942302 0.000000 
0.024414 3.966493 0.000000 
0.024414 3.990693 0.000000 
0.073242 3.966493 0.000000 
0.073242 3.990693 0.000000 
0.024414 4.014907 0.000000 
0.024414 4.039132 0.000000 
0.073242 4.014907 0.000000 
0.073242 4.039132 0.000000 
0.024414 4.063367 0.000000 
0.024414 4.087616 0.000000 
0.073242 4.063367 0.000000 
0.073242 4.087616 0.000000 
[...]
POINT_DATA 2048
=======
POINTS 288 double
0.520833 0.246716 0.000000 
0.520833 0.740148 0.000000 
0.520833 1.233580 0.000000 
0.520833 1.727012 0.000000 
0.520833 2.220445 0.000000 
0.520833 2.713877 0.000000 
1.562500 0.246716 0.000000 
1.562500 0.740148 0.000000 
1.562500 1.233580 0.000000 
1.562500 1.727012 0.000000 
1.562500 2.220445 0.000000 
1.562500 2.713877 0.000000 
2.604167 0.246716 0.000000 
2.604167 0.740148 0.000000 
2.604167 1.233580 0.000000 
2.604167 1.727012 0.000000 
2.604167 2.220445 0.000000 
2.604167 2.713877 0.000000 
3.645833 0.246716 0.000000 
3.645833 0.740148 0.000000 
3.645833 1.233580 0.000000 
3.645833 1.727012 0.000000 
3.645833 2.220445 0.000000 
3.645833 2.713877 0.000000 
4.687500 0.246716 0.000000 
4.687500 0.740148 0.000000 
4.687500 1.233580 0.000000 
4.687500 1.727012 0.000000 
4.687500 2.220445 0.000000 
4.687500 2.713877 0.000000 
5.729167 0.246716 0.000000 
5.729167 0.740148 0.000000 
5.729167 1.233580 0.000000 
5.729167 1.727012 0.000000 
5.729167 2.220445 0.000000 
5.729167 2.713877 0.000000 
0.520833 3.210477 0.000000 
0.520833 3.715493 0.000000 
0.520833 4.228385 0.000000 
0.520833 4.748767 0.000000 
0.520833 5.276040 0.000000 
0.520833 5.809215 0.000000 
1.562500 3.210477 0.000000 
1.562500 3.715493 0.000000 
1.562500 4.228385 0.000000 
1.562500 4.748767 0.000000 
1.562500 5.276040 0.000000 
1.562500 5.809215 0.000000 
2.604167 3.210477 0.000000 
2.604167 3.715493 0.000000 
2.604167 4.228385 0.000000 
2.604167 4.748767 0.000000 
2.604167 5.276040 0.000000 
2.604167 5.809215 0.000000 
3.645833 3.210477 0.000000 
3.645833 3.715493 0.000000 
3.645833 4.228385 0.000000 
3.645833 4.748767 0.000000 
3.645833 5.276040 0.000000 
3.645833 5.809215 0.000000 
4.687500 3.210477 0.000000 
4.687500 3.715493 0.000000 
4.687500 4.228385 0.000000 
4.687500 4.748767 0.000000 
4.687500 5.276040 0.000000 
4.687500 5.809215 0.000000 
5.729167 3.210477 0.000000 
5.729167 3.715493 0.000000 
5.729167 4.228385 0.000000 
5.729167 4.748767 0.000000 
5.729167 5.276040 0.000000 
5.729167 5.809215 0.000000 
0.520833 6.350056 0.000000 
0.520833 6.897529 0.000000 
0.520833 7.450237 0.000000 
0.520833 8.008124 0.000000 
0.520833 8.571016 0.000000 
0.520833 9.138399 0.000000 
1.562500 6.350056 0.000000 
1.562500 6.897529 0.000000 
1.562500 7.450237 0.000000 
1.562500 8.008124 0.000000 
1.562500 8.571016 0.000000 
1.562500 9.138399 0.000000 
2.604167 6.350056 0.000000 
2.604167 6.897529 0.000000 
2.604167 7.450237 0.000000 
2.604167 8.008124 0.000000 
2.604167 8.571016 0.000000 
2.604167 9.138399 0.000000 
3.645833 6.350056 0.000000 
3.645833 6.897529 0.000000 
3.645833 7.450237 0.000000 
3.645833 8.008124 0.000000 
3.645833 8.571016 0.000000 
3.645833 9.138399 0.000000 
4.687500 6.350056 0.000000 
4.687500 6.897529 0.000000 
4.687500 7.450237 0.000000 
4.687500 8.008124 0.000000 
4.687500 8.571016 0.000000 
4.687500 9.138399 0.000000 
5.729167 6.350056 0.000000 
5.729167 6.897529 0.000000 
5.729167 7.450237 0.000000 
5.729167 8.008124 0.000000 
5.729167 8.571016 0.000000 
5.729167 9.138399 0.000000 
0.520833 9.712859 0.000000 
0.520833 10.295719 0.000000 
0.520833 10.887715 0.000000 
0.520833 11.488770 0.000000 
0.520833 12.098759 0.000000 
0.520833 12.716902 0.000000 
1.562500 9.712859 0.000000 
1.562500 10.295719 0.000000 
1.562500 10.887715 0.000000 
1.562500 11.488770 0.000000 
1.562500 12.098759 0.000000 
1.562500 12.716902 0.000000 
2.604167 9.712859 0.000000 
2.604167 10.295719 0.000000 
2.604167 10.887715 0.000000 
2.604167 11.488770 0.000000 
2.604167 12.098759 0.000000 
2.604167 12.716902 0.000000 
3.645833 9.712859 0.000000 
3.645833 10.295719 0.000000 
3.645833 10.887715 0.000000 
3.645833 11.488770 0.000000 
3.645833 12.098759 0.000000 
3.645833 12.716902 0.000000 
4.687500 9.712859 0.000000 
4.687500 10.295719 0.000000 
4.687500 10.887715 0.000000 
4.687500 11.488770 0.000000 
4.687500 12.098759 0.000000 
4.687500 12.716902 0.000000 
5.729167 9.712859 0.000000 
5.729167 10.295719 0.000000 
5.729167 10.887715 0.000000 
5.729167 11.488770 0.000000 
5.729167 12.098759 0.000000 
5.729167 12.716902 0.000000 
0.520833 13.343198 0.000000 
0.520833 13.977929 0.000000 
0.520833 14.622261 0.000000 
0.520833 15.275070 0.000000 
0.520833 15.937312 0.000000 
0.520833 16.609162 0.000000 
1.562500 13.343198 0.000000 
1.562500 13.977929 0.000000 
1.562500 14.622261 0.000000 
1.562500 15.275070 0.000000 
1.562500 15.937312 0.000000 
1.562500 16.609162 0.000000 
2.604167 13.343198 0.000000 
2.604167 13.977929 0.000000 
2.604167 14.622261 0.000000 
2.604167 15.275070 0.000000 
2.604167 15.937312 0.000000 
2.604167 16.609162 0.000000 
3.645833 13.343198 0.000000 
3.645833 13.977929 0.000000 
3.645833 14.622261 0.000000 
3.645833 15.275070 0.000000 
3.645833 15.937312 0.000000 
3.645833 16.609162 0.000000 
4.687500 13.343198 0.000000 
4.687500 13.977929 0.000000 
4.687500 14.622261 0.000000 
4.687500 15.275070 0.000000 
4.687500 15.937312 0.000000 
4.687500 16.609162 0.000000 
5.729167 13.343198 0.000000 
5.729167 13.977929 0.000000 
5.729167 14.622261 0.000000 
5.729167 15.275070 0.000000 
5.729167 15.937312 0.000000 
5.729167 16.609162 0.000000 
0.520833 17.293524 0.000000 
0.520833 17.991787 0.000000 
0.520833 18.704728 0.000000 
0.520833 19.428443 0.000000 
0.520833 20.163501 0.000000 
0.520833 20.908091 0.000000 
1.562500 17.293524 0.000000 
1.562500 17.991787 0.000000 
1.562500 18.704728 0.000000 
1.562500 19.428443 0.000000 
1.562500 20.163501 0.000000 
1.562500 20.908091 0.000000 
2.604167 17.293524 0.000000 
2.604167 17.991787 0.000000 
2.604167 18.704728 0.000000 
2.604167 19.428443 0.000000 
2.604167 20.163501 0.000000 
2.604167 20.908091 0.000000 
3.645833 17.293524 0.000000 
3.645833 17.991787 0.000000 
3.645833 18.704728 0.000000 
3.645833 19.428443 0.000000 
3.645833 20.163501 0.000000 
3.645833 20.908091 0.000000 
4.687500 17.293524 0.000000 
4.687500 17.991787 0.000000 
4.687500 18.704728 0.000000 
4.687500 19.428443 0.000000 
4.687500 20.163501 0.000000 
4.687500 20.908091 0.000000 
5.729167 17.293524 0.000000 
5.729167 17.991787 0.000000 
5.729167 18.704728 0.000000 
5.729167 19.428443 0.000000 
5.729167 20.163501 0.000000 
5.729167 20.908091 0.000000 
0.520833 21.667973 0.000000 
0.520833 22.445160 0.000000 
0.520833 23.239194 0.000000 
0.520833 24.052952 0.000000 
0.520833 24.887579 0.000000 
0.520833 25.738226 0.000000 
1.562500 21.667973 0.000000 
1.562500 22.445160 0.000000 
1.562500 23.239194 0.000000 
1.562500 24.052952 0.000000 
1.562500 24.887579 0.000000 
1.562500 25.738226 0.000000 
2.604167 21.667973 0.000000 
2.604167 22.445160 0.000000 
2.604167 23.239194 0.000000 
2.604167 24.052952 0.000000 
2.604167 24.887579 0.000000 
2.604167 25.738226 0.000000 
3.645833 21.667973 0.000000 
3.645833 22.445160 0.000000 
3.645833 23.239194 0.000000 
3.645833 24.052952 0.000000 
3.645833 24.887579 0.000000 
3.645833 25.738226 0.000000 
4.687500 21.667973 0.000000 
4.687500 22.445160 0.000000 
4.687500 23.239194 0.000000 
4.687500 24.052952 0.000000 
4.687500 24.887579 0.000000 
4.687500 25.738226 0.000000 
5.729167 21.667973 0.000000 
5.729167 22.445160 0.000000 
5.729167 23.239194 0.000000 
5.729167 24.052952 0.000000 
5.729167 24.887579 0.000000 
5.729167 25.738226 0.000000 
0.520833 26.609621 0.000000 
0.520833 27.503587 0.000000 
0.520833 28.420384 0.000000 
0.520833 29.365950 0.000000 
0.520833 30.340530 0.000000 
0.520833 31.346174 0.000000 
1.562500 26.609621 0.000000 
1.562500 27.503587 0.000000 
1.562500 28.420384 0.000000 
1.562500 29.365950 0.000000 
1.562500 30.340530 0.000000 
1.562500 31.346174 0.000000 
2.604167 26.609621 0.000000 
2.604167 27.503587 0.000000 
2.604167 28.420384 0.000000 
2.604167 29.365950 0.000000 
2.604167 30.340530 0.000000 
2.604167 31.346174 0.000000 
3.645833 26.609621 0.000000 
3.645833 27.503587 0.000000 
3.645833 28.420384 0.000000 
3.645833 29.365950 0.000000 
3.645833 30.340530 0.000000 
3.645833 31.346174 0.000000 
4.687500 26.609621 0.000000 
4.687500 27.503587 0.000000 
4.687500 28.420384 0.000000 
4.687500 29.365950 0.000000 
4.687500 30.340530 0.000000 
4.687500 31.346174 0.000000 
5.729167 26.609621 0.000000 
5.729167 27.503587 0.000000 
5.729167 28.420384 0.000000 
5.729167 29.365950 0.000000 
5.729167 30.340530 0.000000 
5.729167 31.346174 0.000000 

POINT_DATA 288
>>>>>>> Stashed changes
SCALARS sigma_xx FLOAT 1
LOOKUP_TABLE default
0.000000
0.000000
0.000000
0.000000
0.000000
0.000000
0.000000
0.000000
0.000000
0.000000
0.000000
<<<<<<< Updated upstream
=======
-0.000000
>>>>>>> Stashed changes
0.000000
0.000000
0.000000
0.000000
<<<<<<< Updated upstream
=======
-0.000000
-0.000000
>>>>>>> Stashed changes
0.000000
0.000000
0.000000
0.000000
<<<<<<< Updated upstream
0.000000
0.000000
-0.000000
0.000000
-0.000000
-0.000000
-0.000000
-0.000000
-0.000000
-0.000000
-0.000000
-0.000000
-0.000000
-0.000000
-0.000000
-0.000000
-0.000000
-0.000000
-0.000000
0.000000
-0.000000
-0.000000
-0.000000
-0.000000
-0.000000
-0.000000
-0.000000
-0.000000
-0.000000
-0.000000
-0.000000
-0.000000
-0.000000
-0.000000
0.000000
-0.000000
-0.000000
-0.000000
-0.000000
-0.000000
-0.000000
0.000000
-0.000000
0.000000
-0.000000
-0.000000
-0.000000
-0.000000
-0.000000
-0.000000
-0.000000
-0.000000
-0.000000
-0.000000
-0.000000
-0.000000
-0.000000
-0.000000
0.000000
-0.000000
0.000000
-0.000000
-0.000000
-0.000000
-0.000000
-0.000000
0.000000
-0.000000
0.000000
-0.000000
-0.000000
-0.000000
-0.000000
-0.000000
-0.000000
-0.000000
-0.000000
-0.000000
-0.000000
-0.000000
-0.000000
-0.000000
-0.000000
-0.000000
-0.000000
-0.000000
-0.000000
-0.000000
-0.000000
-0.000000
-0.000000
-0.000000
-0.000000
-0.000000
-0.000000
-0.000000
-0.000000
-0.000000
-0.000000
-0.000000
-0.000000
-0.000000
-0.000000
-0.000000
-0.000000
-0.000000
-0.000000
-0.000000
-0.000000
-0.000000
0.000000
-0.000000
0.000000
-0.000000
-0.000000
-0.000000
-0.000000
-0.000000
-0.000000
-0.000000
-0.000000
-0.000000
-0.000000
-0.000000
-0.000000
-0.000000
-0.000000
-0.000000
-0.000000
0.000000
-0.000000
0.000000
-0.000000
-0.000000
-0.000000
-0.000000
-0.000000
-0.000000
0.000000
-0.000000
0.000000
-0.000000
-0.000000
-0.000000
-0.000000
-0.000000
-0.000000
-0.000000
-0.000000
0.000000
-0.000000
0.000000
-0.000000
-0.000000
0.000000
-0.000000
0.000000
-0.000000
-0.000000
-0.000000
-0.000000
-0.000000
0.000000
-0.000000
0.000000
-0.000000
-0.000000
-0.000000
-0.000000
-0.000000
-0.000000
-0.000000
-0.000000
-0.000000
-0.000000
-0.000000
-0.000000
-0.000000
-0.000000
-0.000000
-0.000000
-0.000000
-0.000000
-0.000000
-0.000000
-0.000000
-0.000000
-0.000000
-0.000000
-0.000000
-0.000000
-0.000000
-0.000000
-0.000000
-0.000000
-0.000000
-0.000000
-0.000000
-0.000000
-0.000000
-0.000000
-0.000000
-0.000000
-0.000000
-0.000000
-0.000000
-0.000000
-0.000000
-0.000000
-0.000000
-0.000000
-0.000000
-0.000000
-0.000000
-0.000000
-0.000000
-0.000000
-0.000000
-0.000000
-0.000000
-0.000000
-0.000000
-0.000000
-0.000000
-0.000000
0.000000
-0.000000
0.000000
-0.000000
-0.000000
-0.000000
-0.000000
-0.000000
-0.000000
-0.000000
-0.000000
-0.000000
-0.000000
-0.000000
-0.000000
-0.000000
-0.000000
-0.000000
-0.000000
-0.000000
-0.000000
-0.000000
-0.000000
-0.000000
-0.000000
-0.000000
-0.000000
=======
-0.000000
-0.000000
0.000000
0.000000
0.000000
0.000000
-0.000000
-0.000000
0.000000
0.000000
0.000000
0.000000
0.000000
-0.000000
0.000000
0.000000
0.000000
0.000000
0.000000
-0.000000
0.000000
0.000000
0.000000
0.000000
0.000000
-0.000000
0.000000
0.000000
0.000000
0.000000
-0.000000
-0.000000
0.000000
0.000000
0.000000
0.000000
0.000000
-0.000000
0.000000
0.000000
0.000000
0.000000
-0.000000
-0.000000
-0.000000
0.000000
0.000000
0.000000
>>>>>>> Stashed changes
-0.000000
-0.000000
-0.000000
-0.000000
-0.000000
-0.000000
-0.000000
-0.000000
-0.000000
-0.000000
-0.000000
0.000000
<<<<<<< Updated upstream
-0.000000
-0.000000
-0.000000
-0.000000
-0.000000
=======
0.000000
0.000000
0.000000
0.000000
-0.000000
0.000000
0.000000
0.000000
-0.000000
0.000000
-0.000000
0.000000
0.000000
0.000000
0.000000
0.000000
-0.000000
0.000000
-0.000000
0.000000
-0.000000
0.000000
-0.000000
0.000000
-0.000000
0.000000
>>>>>>> Stashed changes
-0.000000
-0.000000
-0.000000
-0.000000
-0.000000
-0.000000
<<<<<<< Updated upstream
-0.000000
-0.000000
-0.000000
-0.000000
-0.000000
-0.000000
-0.000000
-0.000000
-0.000000
-0.000000
-0.000000
-0.000000
-0.000000
-0.000000
-0.000000
-0.000000
-0.000000
-0.000000
-0.000000
-0.000000
-0.000000
-0.000000
-0.000000
-0.000000
-0.000000
-0.000000
-0.000000
-0.000000
-0.000000
-0.000000
-0.000000
-0.000000
0.000000
-0.000000
-0.000000
-0.000000
-0.000000
-0.000000
-0.000000
0.000000
-0.000000
-0.000000
-0.000000
-0.000000
-0.000000
-0.000000
-0.000000
-0.000000
-0.000000
-0.000000
-0.000000
-0.000000
-0.000000
-0.000000
-0.000000
-0.000000
-0.000000
-0.000000
-0.000000
0.000000
-0.000000
0.000000
-0.000000
-0.000000
-0.000000
-0.000000
-0.000000
-0.000000
0.000000
-0.000000
-0.000000
-0.000000
-0.000000
-0.000000
-0.000000
-0.000000
-0.000000
-0.000000
-0.000000
-0.000000
-0.000000
-0.000000
-0.000000
-0.000000
-0.000000
-0.000000
-0.000000
-0.000000
-0.000000
-0.000000
-0.000000
-0.000000
-0.000000
-0.000000
-0.000000
-0.000000
-0.000000
-0.000000
-0.000000
-0.000000
-0.000000
-0.000000
-0.000000
-0.000000
-0.000000
-0.000000
-0.000000
-0.000000
-0.000000
0.000000
-0.000000
-0.000000
-0.000000
-0.000000
-0.000000
-0.000000
-0.000000
-0.000000
-0.000000
-0.000000
-0.000000
-0.000000
-0.000000
-0.000000
-0.000000
-0.000000
0.000000
-0.000000
0.000000
-0.000000
-0.000000
0.000000
-0.000000
0.000000
-0.000000
-0.000000
-0.000000
-0.000000
-0.000000
-0.000000
-0.000000
-0.000000
-0.000000
0.000000
-0.000000
0.000000
-0.000000
-0.000000
-0.000000
-0.000000
0.000000
0.000000
0.000000
-0.000000
0.000000
-0.000000
0.000000
-0.000000
-0.000000
-0.000000
-0.000000
-0.000000
-0.000000
-0.000000
-0.000000
-0.000000
-0.000000
-0.000000
-0.000000
-0.000000
-0.000000
-0.000000
-0.000000
-0.000000
0.000000
-0.000000
0.000000
-0.000000
-0.000000
-0.000000
-0.000000
-0.000000
-0.000000
-0.000000
-0.000000
-0.000000
-0.000000
-0.000000
-0.000000
-0.000000
-0.000000
-0.000000
-0.000000
-0.000000
-0.000000
-0.000000
-0.000000
-0.000000
-0.000000
-0.000000
-0.000000
-0.000000
-0.000000
-0.000000
-0.000000
-0.000000
-0.000000
-0.000000
-0.000000
-0.000000
-0.000000
-0.000000
-0.000000
-0.000000
-0.000000
-0.000000
-0.000000
-0.000000
0.000000
-0.000000
0.000000
-0.000000
-0.000000
-0.000000
-0.000000
-0.000000
-0.000000
-0.000000
0.000000
-0.000000
-0.000000
-0.000000
-0.000000
-0.000000
-0.000000
-0.000000
-0.000000
-0.000000
-0.000000
-0.000000
-0.000000
-0.000000
-0.000000
-0.000000
-0.000000
-0.000000
-0.000000
-0.000000
-0.000000
-0.000000
-0.000000
-0.000000
-0.000000
-0.000000
-0.000000
-0.000000
-0.000000
-0.000000
-0.000000
-0.000000
-0.000000
-0.000000
-0.000000
-0.000000
-0.000000
-0.000000
-0.000000
-0.000000
-0.000000
-0.000000
-0.000000
-0.000000
-0.000000
-0.000000
-0.000000
-0.000000
-0.000000
-0.000000
-0.000000
-0.000000
-0.000000
-0.000000
-0.000000
-0.000000
-0.000000
-0.000000
-0.000000
-0.000000
-0.000000
-0.000000
-0.000000
-0.000000
-0.000000
-0.000000
-0.000000
-0.000000
-0.000000
-0.000000
-0.000000
-0.000000
-0.000000
-0.000000
-0.000000
-0.000000
-0.000000
-0.000000
0.000000
-0.000000
0.000000
-0.000000
-0.000000
-0.000000
-0.000000
-0.000000
-0.000000
-0.000000
-0.000000
-0.000000
-0.000000
-0.000000
-0.000000
-0.000000
-0.000000
-0.000000
-0.000000
-0.000000
-0.000000
-0.000000
-0.000000
-0.000000
-0.000000
-0.000000
-0.000000
-0.000000
-0.000000
-0.000000
-0.000000
-0.000000
-0.000000
-0.000000
-0.000000
-0.000000
-0.000000
-0.000000
-0.000000
-0.000000
-0.000000
-0.000000
-0.000000
-0.000000
-0.000000
-0.000000
-0.000000
-0.000000
-0.000000
-0.000000
-0.000000
-0.000000
-0.000000
-0.000000
-0.000000
-0.000000
-0.000000
-0.000000
-0.000000
-0.000000
-0.000000
-0.000000
-0.000000
-0.000000
-0.000000
-0.000000
-0.000000
-0.000000
-0.000000
-0.000000
0.000000
-0.000000
-0.000000
-0.000000
-0.000000
-0.000000
-0.000000
-0.000000
-0.000000
-0.000000
-0.000000
-0.000000
-0.000000
-0.000000
-0.000000
-0.000000
-0.000000
-0.000000
-0.000000
-0.000000
-0.000000
-0.000000
-0.000000
-0.000000
-0.000000
-0.000000
-0.000000
-0.000000
-0.000000
-0.000000
-0.000000
-0.000000
-0.000000
-0.000000
-0.000000
-0.000000
-0.000000
-0.000000
-0.000000
-0.000000
-0.000000
-0.000000
-0.000000
-0.000000
-0.000000
-0.000000
-0.000000
0.000000
-0.000000
-0.000000
-0.000000
-0.000000
-0.000000
-0.000000
-0.000000
-0.000000
-0.000000
-0.000000
0.000000
-0.000000
-0.000000
-0.000000
-0.000000
-0.000000
-0.000000
-0.000000
-0.000000
-0.000000
-0.000000
-0.000000
-0.000000
-0.000000
-0.000000
-0.000000
-0.000000
-0.000000
-0.000000
-0.000000
-0.000000
-0.000000
-0.000000
-0.000000
-0.000000
-0.000000
-0.000000
-0.000000
-0.000000
-0.000000
-0.000000
-0.000000
-0.000000
-0.000000
-0.000000
-0.000000
-0.000000
-0.000000
-0.000000
-0.000000
-0.000000
-0.000000
-0.000000
-0.000000
-0.000000
-0.000000
-0.000000
-0.000000
-0.000000
-0.000000
-0.000000
-0.000000
-0.000000
-0.000000
-0.000000
-0.000000
-0.000000
-0.000000
-0.000000
-0.000000
-0.000000
-0.000000
-0.000000
-0.000000
-0.000000
-0.000000
-0.000000
-0.000000
-0.000000
-0.000000
-0.000000
-0.000000
-0.000000
-0.000000
-0.000000
-0.000000
-0.000000
-0.000000
-0.000000
-0.000000
-0.000000
-0.000000
-0.000000
-0.000000
-0.000000
-0.000000
-0.000000
-0.000000
-0.000000
-0.000000
-0.000000
-0.000000
-0.000000
-0.000000
-0.000000
-0.000000
-0.000000
-0.000000
-0.000000
-0.000000
-0.000000
-0.000000
-0.000000
-0.000000
-0.000000
-0.000000
-0.000000
-0.000000
-0.000000
-0.000000
-0.000000
-0.000000
-0.000000
-0.000000
-0.000000
-0.000000
-0.000000
-0.000000
-0.000000
-0.000000
-0.000000
-0.000000
-0.000000
-0.000000
-0.000000
-0.000000
-0.000000
-0.000000
-0.000000
-0.000000
-0.000000
-0.000000
-0.000000
-0.000000
-0.000000
-0.000000
-0.000000
-0.000000
-0.000000
-0.000000
-0.000000
-0.000000
-0.000000
-0.000000
-0.000000
-0.000000
-0.000000
-0.000000
-0.000000
-0.000000
-0.000000
-0.000000
-0.000000
-0.000000
-0.000000
-0.000000
-0.000000
-0.000000
-0.000000
-0.000000
-0.000000
-0.000000
-0.000000
-0.000000
-0.000000
-0.000000
-0.000000
-0.000000
-0.000000
-0.000000
-0.000000
-0.000000
-0.000000
-0.000000
-0.000000
-0.000000
-0.000000
-0.000000
-0.000000
-0.000000
-0.000000
-0.000000
-0.000000
-0.000000
-0.000000
-0.000000
-0.000000
-0.000000
-0.000000
-0.000000
-0.000000
-0.000000
-0.000000
-0.000000
-0.000000
-0.000000
-0.000000
-0.000000
-0.000000
-0.000000
-0.000000
-0.000000
-0.000000
-0.000000
-0.000000
-0.000000
-0.000000
-0.000000
-0.000000
-0.000000
-0.000000
-0.000000
-0.000000
-0.000000
-0.000000
-0.000000
0.000000
-0.000000
-0.000000
-0.000000
-0.000000
0.000000
-0.000000
-0.000000
-0.000000
-0.000000
-0.000000
-0.000000
-0.000000
-0.000000
-0.000000
-0.000000
-0.000000
-0.000000
-0.000000
-0.000000
-0.000000
-0.000000
-0.000000
-0.000000
-0.000000
-0.000000
-0.000000
-0.000000
-0.000000
-0.000000
-0.000000
0.000000
-0.000000
-0.000000
-0.000000
-0.000000
-0.000000
-0.000000
-0.000000
-0.000000
-0.000000
-0.000000
-0.000000
-0.000000
-0.000000
-0.000000
-0.000000
-0.000000
0.000000
-0.000000
0.000000
-0.000000
-0.000000
-0.000000
-0.000000
-0.000000
-0.000000
-0.000000
-0.000000
-0.000000
-0.000000
-0.000000
-0.000000
-0.000000
-0.000000
-0.000000
-0.000000
0.000000
-0.000000
-0.000000
-0.000000
-0.000000
-0.000000
-0.000000
-0.000000
-0.000000
-0.000000
-0.000000
-0.000000
-0.000000
-0.000000
-0.000000
-0.000000
-0.000000
-0.000000
-0.000000
-0.000000
-0.000000
-0.000000
-0.000000
-0.000000
-0.000000
-0.000000
-0.000000
-0.000000
-0.000000
-0.000000
-0.000000
-0.000000
-0.000000
-0.000000
-0.000000
-0.000000
-0.000000
-0.000000
-0.000000
-0.000000
-0.000000
-0.000000
-0.000000
-0.000000
-0.000000
-0.000000
-0.000000
-0.000000
-0.000000
-0.000000
-0.000000
-0.000000
-0.000000
-0.000000
-0.000000
-0.000000
-0.000000
-0.000000
-0.000000
-0.000000
-0.000000
-0.000000
-0.000000