# vtk DataFile Version 2.0
MATLAB generated vtk file, WMC
ASCII
DATASET UNSTRUCTURED_GRID
POINTS 576 double
0.130208 0.042284 0.000000 
0.130208 0.126851 0.000000 
0.130208 0.211418 0.000000 
0.390625 0.042284 0.000000 
0.390625 0.126851 0.000000 
0.390625 0.211418 0.000000 
0.651042 0.042284 0.000000 
0.651042 0.126851 0.000000 
0.651042 0.211418 0.000000 
0.130208 0.296075 0.000000 
0.130208 0.381015 0.000000 
0.130208 0.466201 0.000000 
0.390625 0.296075 0.000000 
0.390625 0.381015 0.000000 
0.390625 0.466201 0.000000 
0.651042 0.296075 0.000000 
0.651042 0.381015 0.000000 
0.651042 0.466201 0.000000 
0.130208 0.551632 0.000000 
0.130208 0.637377 0.000000 
0.130208 0.723404 0.000000 
0.390625 0.551632 0.000000 
0.390625 0.637377 0.000000 
0.390625 0.723404 0.000000 
0.651042 0.551632 0.000000 
0.651042 0.637377 0.000000 
0.651042 0.723404 0.000000 
0.130208 0.809698 0.000000 
0.130208 0.896240 0.000000 
0.130208 0.982992 0.000000 
0.390625 0.809698 0.000000 
0.390625 0.896240 0.000000 
0.390625 0.982992 0.000000 
0.651042 0.809698 0.000000 
0.651042 0.896240 0.000000 
0.651042 0.982992 0.000000 
0.130208 1.069978 0.000000 
0.130208 1.157227 0.000000 
0.130208 1.244723 0.000000 
0.390625 1.069978 0.000000 
0.390625 1.157227 0.000000 
0.390625 1.244723 0.000000 
0.651042 1.069978 0.000000 
0.651042 1.157227 0.000000 
0.651042 1.244723 0.000000 
0.130208 1.332475 0.000000 
0.130208 1.420502 0.000000 
0.130208 1.508805 0.000000 
0.390625 1.332475 0.000000 
0.390625 1.420502 0.000000 
0.390625 1.508805 0.000000 
0.651042 1.332475 0.000000 
0.651042 1.420502 0.000000 
0.651042 1.508805 0.000000 
0.130208 1.597390 0.000000 
0.130208 1.686231 0.000000 
0.130208 1.775322 0.000000 
0.390625 1.597390 0.000000 
0.390625 1.686231 0.000000 
0.390625 1.775322 0.000000 
0.651042 1.597390 0.000000 
0.651042 1.686231 0.000000 
0.651042 1.775322 0.000000 
0.130208 1.864662 0.000000 
0.130208 1.954273 0.000000 
0.130208 2.044163 0.000000 
0.390625 1.864662 0.000000 
0.390625 1.954273 0.000000 
0.390625 2.044163 0.000000 
0.651042 1.864662 0.000000 
0.651042 1.954273 0.000000 
0.651042 2.044163 0.000000 
0.130208 2.134319 0.000000 
0.130208 2.224790 0.000000 
0.130208 2.315516 0.000000 
0.390625 2.134319 0.000000 
0.390625 2.224790 0.000000 
0.390625 2.315516 0.000000 
0.651042 2.134319 0.000000 
0.651042 2.224790 0.000000 
0.651042 2.315516 0.000000 
0.130208 2.406553 0.000000 
0.130208 2.497880 0.000000 
0.130208 2.589446 0.000000 
0.390625 2.406553 0.000000 
0.390625 2.497880 0.000000 
0.390625 2.589446 0.000000 
0.651042 2.406553 0.000000 
0.651042 2.497880 0.000000 
0.651042 2.589446 0.000000 
0.130208 2.681315 0.000000 
0.130208 2.773471 0.000000 
0.130208 2.865911 0.000000 
0.390625 2.681315 0.000000 
0.390625 2.773471 0.000000 
0.390625 2.865911 0.000000 
0.651042 2.681315 0.000000 
0.651042 2.773471 0.000000 
0.651042 2.865911 0.000000 
0.130208 2.958654 0.000000 
0.130208 3.051737 0.000000 
0.130208 3.145085 0.000000 
0.390625 2.958654 0.000000 
0.390625 3.051737 0.000000 
0.390625 3.145085 0.000000 
0.651042 2.958654 0.000000 
0.651042 3.051737 0.000000 
0.651042 3.145085 0.000000 
0.130208 3.238757 0.000000 
0.130208 3.332725 0.000000 
0.130208 3.426984 0.000000 
0.390625 3.238757 0.000000 
0.390625 3.332725 0.000000 
0.390625 3.426984 0.000000 
0.651042 3.238757 0.000000 
0.651042 3.332725 0.000000 
0.651042 3.426984 0.000000 
0.130208 3.521573 0.000000 
0.130208 3.616468 0.000000 
0.130208 3.711641 0.000000 
0.390625 3.521573 0.000000 
0.390625 3.616468 0.000000 
0.390625 3.711641 0.000000 
0.651042 3.521573 0.000000 
0.651042 3.616468 0.000000 
0.651042 3.711641 0.000000 
0.130208 3.807149 0.000000 
0.130208 3.903011 0.000000 
0.130208 3.999180 0.000000 
0.390625 3.807149 0.000000 
0.390625 3.903011 0.000000 
0.390625 3.999180 0.000000 
0.651042 3.807149 0.000000 
0.651042 3.903011 0.000000 
0.651042 3.999180 0.000000 
0.130208 4.095647 0.000000 
0.130208 4.192501 0.000000 
0.130208 4.289612 0.000000 
0.390625 4.095647 0.000000 
0.390625 4.192501 0.000000 
0.390625 4.289612 0.000000 
0.651042 4.095647 0.000000 
0.651042 4.192501 0.000000 
0.651042 4.289612 0.000000 
0.130208 4.387053 0.000000 
0.130208 4.484883 0.000000 
0.130208 4.583074 0.000000 
0.390625 4.387053 0.000000 
0.390625 4.484883 0.000000 
0.390625 4.583074 0.000000 
0.651042 4.387053 0.000000 
0.651042 4.484883 0.000000 
0.651042 4.583074 0.000000 
0.130208 4.681570 0.000000 
0.130208 4.780432 0.000000 
0.130208 4.879611 0.000000 
0.390625 4.681570 0.000000 
0.390625 4.780432 0.000000 
0.390625 4.879611 0.000000 
0.651042 4.681570 0.000000 
0.651042 4.780432 0.000000 
0.651042 4.879611 0.000000 
0.130208 4.979170 0.000000 
0.130208 5.079035 0.000000 
0.130208 5.179321 0.000000 
0.390625 4.979170 0.000000 
0.390625 5.079035 0.000000 
0.390625 5.179321 0.000000 
0.651042 4.979170 0.000000 
0.651042 5.079035 0.000000 
0.651042 5.179321 0.000000 
0.130208 5.279943 0.000000 
0.130208 5.380913 0.000000 
0.130208 5.482297 0.000000 
0.390625 5.279943 0.000000 
0.390625 5.380913 0.000000 
0.390625 5.482297 0.000000 
0.651042 5.279943 0.000000 
0.651042 5.380913 0.000000 
0.651042 5.482297 0.000000 
0.130208 5.584068 0.000000 
0.130208 5.686184 0.000000 
0.130208 5.788642 0.000000 
0.390625 5.584068 0.000000 
0.390625 5.686184 0.000000 
0.390625 5.788642 0.000000 
0.651042 5.584068 0.000000 
0.651042 5.686184 0.000000 
0.651042 5.788642 0.000000 
0.130208 5.891534 0.000000 
0.130208 5.994770 0.000000 
0.130208 6.098395 0.000000 
0.390625 5.891534 0.000000 
0.390625 5.994770 0.000000 
0.390625 6.098395 0.000000 
0.651042 5.891534 0.000000 
0.651042 5.994770 0.000000 
0.651042 6.098395 0.000000 
0.130208 6.202448 0.000000 
0.130208 6.306915 0.000000 
0.130208 6.411713 0.000000 
0.390625 6.202448 0.000000 
0.390625 6.306915 0.000000 
0.390625 6.411713 0.000000 
0.651042 6.202448 0.000000 
0.651042 6.306915 0.000000 
0.651042 6.411713 0.000000 
0.130208 6.516909 0.000000 
0.130208 6.622547 0.000000 
0.130208 6.728573 0.000000 
0.390625 6.516909 0.000000 
0.390625 6.622547 0.000000 
0.390625 6.728573 0.000000 
0.651042 6.516909 0.000000 
0.651042 6.622547 0.000000 
0.651042 6.728573 0.000000 
0.130208 6.835043 0.000000 
0.130208 6.941946 0.000000 
0.130208 7.049273 0.000000 
0.390625 6.835043 0.000000 
0.390625 6.941946 0.000000 
0.390625 7.049273 0.000000 
0.651042 6.835043 0.000000 
0.651042 6.941946 0.000000 
0.651042 7.049273 0.000000 
0.130208 7.157012 0.000000 
0.130208 7.265191 0.000000 
0.130208 7.373787 0.000000 
0.390625 7.157012 0.000000 
0.390625 7.265191 0.000000 
0.390625 7.373787 0.000000 
0.651042 7.157012 0.000000 
0.651042 7.265191 0.000000 
0.651042 7.373787 0.000000 
0.130208 7.482873 0.000000 
0.130208 7.592409 0.000000 
0.130208 7.702353 0.000000 
0.390625 7.482873 0.000000 
0.390625 7.592409 0.000000 
0.390625 7.702353 0.000000 
0.651042 7.482873 0.000000 
0.651042 7.592409 0.000000 
0.651042 7.702353 0.000000 
0.130208 7.812835 0.000000 
0.130208 7.923699 0.000000 
0.130208 8.035049 0.000000 
0.390625 7.812835 0.000000 
0.390625 7.923699 0.000000 
0.390625 8.035049 0.000000 
0.651042 7.812835 0.000000 
0.651042 7.923699 0.000000 
0.651042 8.035049 0.000000 
0.130208 8.146873 0.000000 
0.130208 8.259164 0.000000 
0.130208 8.371944 0.000000 
0.390625 8.146873 0.000000 
0.390625 8.259164 0.000000 
0.390625 8.371944 0.000000 
0.651042 8.146873 0.000000 
0.651042 8.259164 0.000000 
0.651042 8.371944 0.000000 
0.130208 8.485201 0.000000 
0.130208 8.599000 0.000000 
0.130208 8.713238 0.000000 
0.390625 8.485201 0.000000 
0.390625 8.599000 0.000000 
0.390625 8.713238 0.000000 
0.651042 8.485201 0.000000 
0.651042 8.599000 0.000000 
0.651042 8.713238 0.000000 
0.130208 8.828014 0.000000 
0.130208 8.943310 0.000000 
0.130208 9.059095 0.000000 
0.390625 8.828014 0.000000 
0.390625 8.943310 0.000000 
0.390625 9.059095 0.000000 
0.651042 8.828014 0.000000 
0.651042 8.943310 0.000000 
0.651042 9.059095 0.000000 
0.130208 9.175377 0.000000 
0.130208 9.292244 0.000000 
0.130208 9.409579 0.000000 
0.390625 9.175377 0.000000 
0.390625 9.292244 0.000000 
0.390625 9.409579 0.000000 
0.651042 9.175377 0.000000 
0.651042 9.292244 0.000000 
0.651042 9.409579 0.000000 
0.130208 9.527519 0.000000 
0.130208 9.645991 0.000000 
0.130208 9.764924 0.000000 
0.390625 9.527519 0.000000 
0.390625 9.645991 0.000000 
0.390625 9.764924 0.000000 
0.651042 9.527519 0.000000 
0.651042 9.645991 0.000000 
0.651042 9.764924 0.000000 
0.130208 9.884485 0.000000 
0.130208 10.004628 0.000000 
0.130208 10.125356 0.000000 
0.390625 9.884485 0.000000 
0.390625 10.004628 0.000000 
0.390625 10.125356 0.000000 
0.651042 9.884485 0.000000 
0.651042 10.004628 0.000000 
0.651042 10.125356 0.000000 
0.130208 10.246616 0.000000 
0.130208 10.368592 0.000000 
0.130208 10.491042 0.000000 
0.390625 10.246616 0.000000 
0.390625 10.368592 0.000000 
0.390625 10.491042 0.000000 
0.651042 10.246616 0.000000 
0.651042 10.368592 0.000000 
0.651042 10.491042 0.000000 
0.130208 10.614043 0.000000 
0.130208 10.737750 0.000000 
0.130208 10.862065 0.000000 
0.390625 10.614043 0.000000 
0.390625 10.737750 0.000000 
0.390625 10.862065 0.000000 
0.651042 10.614043 0.000000 
0.651042 10.737750 0.000000 
0.651042 10.862065 0.000000 
0.130208 10.987028 0.000000 
0.130208 11.112599 0.000000 
0.130208 11.238807 0.000000 
0.390625 10.987028 0.000000 
0.390625 11.112599 0.000000 
0.390625 11.238807 0.000000 
0.651042 10.987028 0.000000 
0.651042 11.112599 0.000000 
0.651042 11.238807 0.000000 
0.130208 11.365638 0.000000 
0.130208 11.493134 0.000000 
0.130208 11.621300 0.000000 
0.390625 11.365638 0.000000 
0.390625 11.493134 0.000000 
0.390625 11.621300 0.000000 
0.651042 11.365638 0.000000 
0.651042 11.493134 0.000000 
0.651042 11.621300 0.000000 
0.130208 11.750183 0.000000 
0.130208 11.879779 0.000000 
0.130208 12.010012 0.000000 
0.390625 11.750183 0.000000 
0.390625 11.879779 0.000000 
0.390625 12.010012 0.000000 
0.651042 11.750183 0.000000 
0.651042 11.879779 0.000000 
0.651042 12.010012 0.000000 
0.130208 12.140914 0.000000 
0.130208 12.272573 0.000000 
0.130208 12.405029 0.000000 
0.390625 12.140914 0.000000 
0.390625 12.272573 0.000000 
0.390625 12.405029 0.000000 
0.651042 12.140914 0.000000 
0.651042 12.272573 0.000000 
0.651042 12.405029 0.000000 
0.130208 12.538133 0.000000 
0.130208 12.671980 0.000000 
0.130208 12.806692 0.000000 
0.390625 12.538133 0.000000 
0.390625 12.671980 0.000000 
0.390625 12.806692 0.000000 
0.651042 12.538133 0.000000 
0.651042 12.671980 0.000000 
0.651042 12.806692 0.000000 
0.130208 12.942012 0.000000 
0.130208 13.078147 0.000000 
0.130208 13.215181 0.000000 
0.390625 12.942012 0.000000 
0.390625 13.078147 0.000000 
0.390625 13.215181 0.000000 
0.651042 12.942012 0.000000 
0.651042 13.078147 0.000000 
0.651042 13.215181 0.000000 
0.130208 13.353042 0.000000 
0.130208 13.491514 0.000000 
0.130208 13.630982 0.000000 
0.390625 13.353042 0.000000 
0.390625 13.491514 0.000000 
0.390625 13.630982 0.000000 
0.651042 13.353042 0.000000 
0.651042 13.491514 0.000000 
0.651042 13.630982 0.000000 
0.130208 13.771288 0.000000 
0.130208 13.912393 0.000000 
0.130208 14.054417 0.000000 
0.390625 13.771288 0.000000 
0.390625 13.912393 0.000000 
0.390625 14.054417 0.000000 
0.651042 13.771288 0.000000 
0.651042 13.912393 0.000000 
0.651042 14.054417 0.000000 
0.130208 14.197296 0.000000 
0.130208 14.341122 0.000000 
0.130208 14.485751 0.000000 
0.390625 14.197296 0.000000 
0.390625 14.341122 0.000000 
0.390625 14.485751 0.000000 
0.651042 14.197296 0.000000 
0.651042 14.341122 0.000000 
0.651042 14.485751 0.000000 
0.130208 14.631435 0.000000 
0.130208 14.778041 0.000000 
0.130208 14.925671 0.000000 
0.390625 14.631435 0.000000 
0.390625 14.778041 0.000000 
0.390625 14.925671 0.000000 
0.651042 14.631435 0.000000 
0.651042 14.778041 0.000000 
0.651042 14.925671 0.000000 
0.130208 15.074195 0.000000 
0.130208 15.223663 0.000000 
0.130208 15.374248 0.000000 
0.390625 15.074195 0.000000 
0.390625 15.223663 0.000000 
0.390625 15.374248 0.000000 
0.651042 15.074195 0.000000 
0.651042 15.223663 0.000000 
0.651042 15.374248 0.000000 
0.130208 15.525900 0.000000 
0.130208 15.678526 0.000000 
0.130208 15.832191 0.000000 
0.390625 15.525900 0.000000 
0.390625 15.678526 0.000000 
0.390625 15.832191 0.000000 
0.651042 15.525900 0.000000 
0.651042 15.678526 0.000000 
0.651042 15.832191 0.000000 
0.130208 15.987000 0.000000 
0.130208 16.142927 0.000000 
0.130208 16.299873 0.000000 
0.390625 15.987000 0.000000 
0.390625 16.142927 0.000000 
0.390625 16.299873 0.000000 
0.651042 15.987000 0.000000 
0.651042 16.142927 0.000000 
0.651042 16.299873 0.000000 
0.130208 16.458167 0.000000 
0.130208 16.617631 0.000000 
0.130208 16.778072 0.000000 
0.390625 16.458167 0.000000 
0.390625 16.617631 0.000000 
0.390625 16.778072 0.000000 
0.651042 16.458167 0.000000 
0.651042 16.617631 0.000000 
0.651042 16.778072 0.000000 
0.130208 16.939892 0.000000 
0.130208 17.103126 0.000000 
0.130208 17.267411 0.000000 
0.390625 16.939892 0.000000 
0.390625 17.103126 0.000000 
0.390625 17.267411 0.000000 
0.651042 16.939892 0.000000 
0.651042 17.103126 0.000000 
0.651042 17.267411 0.000000 
0.130208 17.433042 0.000000 
0.130208 17.600126 0.000000 
0.130208 17.768383 0.000000 
0.390625 17.433042 0.000000 
0.390625 17.600126 0.000000 
0.390625 17.768383 0.000000 
0.651042 17.433042 0.000000 
0.651042 17.600126 0.000000 
0.651042 17.768383 0.000000 
0.130208 17.938213 0.000000 
0.130208 18.109361 0.000000 
0.130208 18.282081 0.000000 
0.390625 17.938213 0.000000 
0.390625 18.109361 0.000000 
0.390625 18.282081 0.000000 
0.651042 17.938213 0.000000 
0.651042 18.109361 0.000000 
0.651042 18.282081 0.000000 
0.130208 18.456251 0.000000 
0.130208 18.632001 0.000000 
0.130208 18.809226 0.000000 
0.390625 18.456251 0.000000 
0.390625 18.632001 0.000000 
0.390625 18.809226 0.000000 
0.651042 18.456251 0.000000 
0.651042 18.632001 0.000000 
0.651042 18.809226 0.000000 
0.130208 18.988145 0.000000 
0.130208 19.168684 0.000000 
0.130208 19.350810 0.000000 
0.390625 18.988145 0.000000 
0.390625 19.168684 0.000000 
0.390625 19.350810 0.000000 
0.651042 18.988145 0.000000 
0.651042 19.168684 0.000000 
0.651042 19.350810 0.000000 
0.130208 19.534860 0.000000 
0.130208 19.720645 0.000000 
0.130208 19.907909 0.000000 
0.390625 19.534860 0.000000 
0.390625 19.720645 0.000000 
0.390625 19.907909 0.000000 
0.651042 19.534860 0.000000 
0.651042 19.720645 0.000000 
0.651042 19.907909 0.000000 
0.130208 20.097447 0.000000 
0.130208 20.288908 0.000000 
0.130208 20.482087 0.000000 
0.390625 20.097447 0.000000 
0.390625 20.288908 0.000000 
0.390625 20.482087 0.000000 
0.651042 20.097447 0.000000 
0.651042 20.288908 0.000000 
0.651042 20.482087 0.000000 
0.130208 20.677554 0.000000 
0.130208 20.875062 0.000000 
0.130208 21.074744 0.000000 
0.390625 20.677554 0.000000 
0.390625 20.875062 0.000000 
0.390625 21.074744 0.000000 
0.651042 20.677554 0.000000 
0.651042 20.875062 0.000000 
0.651042 21.074744 0.000000 
0.130208 21.276574 0.000000 
0.130208 21.481014 0.000000 
0.130208 21.687507 0.000000 
0.390625 21.276574 0.000000 
0.390625 21.481014 0.000000 
0.390625 21.687507 0.000000 
0.651042 21.276574 0.000000 
0.651042 21.481014 0.000000 
0.651042 21.687507 0.000000 
0.130208 21.896428 0.000000 
0.130208 22.108413 0.000000 
0.130208 22.322744 0.000000 
0.390625 21.896428 0.000000 
0.390625 22.108413 0.000000 
0.390625 22.322744 0.000000 
0.651042 21.896428 0.000000 
0.651042 22.108413 0.000000 
0.651042 22.322744 0.000000 
0.130208 22.539702 0.000000 
0.130208 22.759653 0.000000 
0.130208 22.982436 0.000000 
0.390625 22.539702 0.000000 
0.390625 22.759653 0.000000 
0.390625 22.982436 0.000000 
0.651042 22.539702 0.000000 
0.651042 22.759653 0.000000 
0.651042 22.982436 0.000000 
0.130208 23.208052 0.000000 
0.130208 23.437111 0.000000 
0.130208 23.669867 0.000000 
0.390625 23.208052 0.000000 
0.390625 23.437111 0.000000 
0.390625 23.669867 0.000000 
0.651042 23.208052 0.000000 
0.651042 23.437111 0.000000 
0.651042 23.669867 0.000000 
0.130208 23.905420 0.000000 
0.130208 24.145150 0.000000 
0.130208 24.389212 0.000000 
0.390625 23.905420 0.000000 
0.390625 24.145150 0.000000 
0.390625 24.389212 0.000000 
0.651042 23.905420 0.000000 
0.651042 24.145150 0.000000 
0.651042 24.389212 0.000000 
0.130208 24.635835 0.000000 
0.130208 24.886529 0.000000 
0.130208 25.140512 0.000000 
0.390625 24.635835 0.000000 
0.390625 24.886529 0.000000 
0.390625 25.140512 0.000000 
0.651042 24.635835 0.000000 
0.651042 24.886529 0.000000 
0.651042 25.140512 0.000000 

POINT_DATA 576
SCALARS sigma_xx FLOAT 1
LOOKUP_TABLE default
0.000000
0.000000
-0.000000
0.000000
0.000000
-0.000000
0.000000
0.000000
-0.000000
0.000000
-0.000000
-0.000000
0.000000
-0.000000
-0.000000
0.000000
-0.000000
-0.000000
-0.000000
-0.000000
-0.000000
-0.000000
-0.000000
-0.000000
-0.000000
-0.000000
-0.000000
-0.000000
-0.000000
-0.000000
-0.000000
-0.000000
-0.000000
-0.000000
-0.000000
-0.000000
-0.000000
-0.000000
-0.000000
-0.000000
-0.000000
-0.000000
-0.000000
-0.000000
-0.000000
-0.000000
-0.000000
-0.000000
-0.000000
-0.000000
-0.000000
-0.000000
-0.000000
-0.000000
-0.000000
0.000000
-0.000000
0.000000
0.000000
-0.000000
0.000000
0.000000
-0.000000
-0.000000
-0.000000
-0.000000
-0.000000
-0.000000
-0.000000
-0.000000
-0.000000
-0.000000
-0.000000
-0.000000
-0.000000
-0.000000
-0.000000
-0.000000
-0.000000
-0.000000
-0.000000
-0.000000
-0.000000
-0.000000
-0.000000
-0.000000
-0.000000
-0.000000
-0.000000
0.000000
-0.000000
-0.000000
-0.000000
-0.000000
0.000000
-0.000000
-0.000000
0.000000
-0.000000
-0.000000
-0.000000
-0.000000
-0.000000
-0.000000
-0.000000
-0.000000
-0.000000
-0.000000
-0.000000
-0.000000
-0.000000
-0.000000
-0.000000
-0.000000
-0.000000
-0.000000
-0.000000
-0.000000
-0.000000
-0.000000
-0.000000
-0.000000
-0.000000
-0.000000
-0.000000
-0.000000
0.000000
0.000000
-0.000000
-0.000000
-0.000000
-0.000000
0.000000
-0.000000
-0.000000
-0.000000
-0.000000
-0.000000
-0.000000
-0.000000
-0.000000
-0.000000
-0.000000
0.000000
0.000000
-0.000000
-0.000000
-0.000000
-0.000000
-0.000000
-0.000000
-0.000000
-0.000000
-0.000000
-0.000000
-0.000000
-0.000000
-0.000000
-0.000000
-0.000000
-0.000000
-0.000000
-0.000000
-0.000000
-0.000000
-0.000000
-0.000000
-0.000000
-0.000000
-0.000000
-0.000000
-0.000000
-0.000000
-0.000000
-0.000000
-0.000000
-0.000000
-0.000000
-0.000000
-0.000000
-0.000000
-0.000000
-0.000000
-0.000000
-0.000000
-0.000000
-0.000000
-0.000000
-0.000000
-0.000000
-0.000000
-0.000000
-0.000000
-0.000000
-0.000000
-0.000000
-0.000000
-0.000000
-0.000000
0.000000
-0.000000
-0.000000
-0.000000
-0.000000
-0.000000
-0.000000
-0.000000
-0.000000
-0.000000
-0.000000
-0.000000
-0.000000
-0.000000
-0.000000
-0.000000
-0.000000
-0.000000
-0.000000
-0.000000
-0.000000
-0.000000
-0.000000
-0.000000
-0.000000
-0.000000
-0.000000
-0.000000
-0.000000
-0.000000
-0.000000
-0.000000
-0.000000
0.000000
0.000000
-0.000000
-0.000000
-0.000000
-0.000000
-0.000000
-0.000000
-0.000000
-0.000000
-0.000000
-0.000000
-0.000000
-0.000000
-0.000000
-0.000000
-0.000000
-0.000000
-0.000000
-0.000000
-0.000000
-0.000000
-0.000000
-0.000000
-0.000000
-0.000000
-0.000000
-0.000000
-0.000000
-0.000000
-0.000000
-0.000000
-0.000000
-0.000000
-0.000000
-0.000000
-0.000000
-0.000000
-0.000000
-0.000000
-0.000000
-0.000000
-0.000000
-0.000000
-0.000000
-0.000000
-0.000000
-0.000000
-0.000000
-0.000000
-0.000000
-0.000000
-0.000000
-0.000000
-0.000000
-0.000000
-0.000000
-0.000000
-0.000000
-0.000000
-0.000000
-0.000000
-0.000000
-0.000000
-0.000000
-0.000000
-0.000000
-0.000000
-0.000000
-0.000000
-0.000000
-0.000000
-0.000000
-0.000000
-0.000000
-0.000000
-0.000000
-0.000000
-0.000000
-0.000000
-0.000000
-0.000000
-0.000000
-0.000000
-0.000000
-0.000000
-0.000000
-0.000000
-0.000000
-0.000000
-0.000000
-0.000000
-0.000000
-0.000000
-0.000000
-0.000000
-0.000000
-0.000000
-0.000000
-0.000000
-0.000000
-0.000000
-0.000000
-0.000000
-0.000000
-0.000000
-0.000000
-0.000000
-0.000000
-0.000000
-0.000000
-0.000000
-0.000000
-0.000000
-0.000000
-0.000000
-0.000000
-0.000000
-0.000000
-0.000000
-0.000000
-0.000000
-0.000000
-0.000000
-0.000000
-0.000000
-0.000000
-0.000000
-0.000000
-0.000000
-0.000000
-0.000000
-0.000000
-0.000000
-0.000000
-0.000000
-0.000000
-0.000000
-0.000000
-0.000000
-0.000000
-0.000000
-0.000000
-0.000000
-0.000000
-0.000000
-0.000000
-0.000000
-0.000000
-0.000000
-0.000000
-0.000000
-0.000000
-0.000000
-0.000000
-0.000000
-0.000000
-0.000000
-0.000000
-0.000000
-0.000000
-0.000000
-0.000000
-0.000000
-0.000000
-0.000000
-0.000000
-0.000000
-0.000000
-0.000000
-0.000000
-0.000000
-0.000000
-0.000000
-0.000000
-0.000000
0.000000
-0.000000
-0.000000
-0.000000
-0.000000
-0.000000
-0.000000
-0.000000
-0.000000
-0.000000
-0.000000
-0.000000
-0.000000
-0.000000
0.000000
-0.000000
-0.000000
-0.000000
-0.000000
-0.000000
-0.000000
-0.000000
-0.000000
-0.000000
-0.000000
-0.000000
-0.000000
-0.000000
-0.000000
-0.000000
-0.000000
-0.000000
-0.000000
-0.000000
-0.000000
-0.000000
-0.000000
-0.000000
-0.000000
-0.000000
-0.000000
-0.000000
-0.000000
-0.000000
-0.000000
-0.000000
-0.000000
-0.000000
0.000000
-0.000000
-0.000000
-0.000000
-0.000000
-0.000000
-0.000000
-0.000000
-0.000000
-0.000000
-0.000000
-0.000000
-0.000000
-0.000000
-0.000000
-0.000000
-0.000000
-0.000000
-0.000000
-0.000000
-0.000000
-0.000000
-0.000000
-0.000000
-0.000000
-0.000000
-0.000000
-0.000000
-0.000000
-0.000000
-0.000000
-0.000000
-0.000000
-0.000000
-0.000000
-0.000000
-0.000000
-0.000000
-0.000000
-0.000000
-0.000000
-0.000000
-0.000000
-0.000000
-0.000000
-0.000000
-0.000000
-0.000000
-0.000000
-0.000000
-0.000000
-0.000000
0.000000
-0.000000
-0.000000
0.000000
-0.000000
-0.000000
-0.000000
-0.000000
-0.000000
-0.000000
-0.000000
-0.000000
-0.000000
-0.000000
-0.000000
-0.000000
-0.000000
-0.000000
0.000000
-0.000000
-0.000000
0.000000
-0.000000
-0.000000
-0.000000
-0.000000
-0.000000
-0.000000
-0.000000
-0.000000
-0.000000
-0.000000
0.000000
-0.000000
-0.000000
0.000000
-0.000000
-0.000000
-0.000000
-0.000000
-0.000000
-0.000000
-0.000000
-0.000000
-0.000000
-0.000000
-0.000000
-0.000000
-0.000000
0.000000
-0.000000
-0.000000
-0.000000
-0.000000
-0.000000
-0.000000
-0.000000
-0.000000
-0.000000
-0.000000
-0.000000
-0.000000
-0.000000
-0.000000
-0.000000
-0.000000
-0.000000
-0.000000

SCALARS sigma_yy FLOAT 1
LOOKUP_TABLE default
-34635.224629
-34635.224629
-34635.224629
-34635.224629
-34635.224629
-34635.224629
-34635.224629
-34635.224629
-34635.224629
-34457.278250
-34245.508389
-34087.379140
-34457.278250
-34245.508389
-34087.379140
-34457.278250
-34245.508389
-34087.379140
-33848.168224
-33631.441537
-33438.253494
-33848.168224
-33631.441537
-33438.253494
-33848.168224
-33631.441537
-33438.253494
-33227.674618
-33069.202167
-32931.878063
-33227.674618
-33069.202167
-32931.878063
-33227.674618
-33069.202167
-32931.878063
-32724.346265
-32545.465159
-32387.485130
-32724.346265
-32545.465159
-32387.485130
-32724.346265
-32545.465159
-32387.485130
-32176.252213
-31982.228866
-31812.422291
-32176.252213
-31982.228866
-31812.422291
-32176.252213
-31982.228866
-31812.422291
-31595.660030
-31444.268516
-31284.177557
-31595.660030
-31444.268516
-31284.177557
-31595.660030
-31444.268516
-31284.177557
-31075.293381
-30915.120112
-30736.298661
-31075.293381
-30915.120112
-30736.298661
-31075.293381
-30915.120112
-30736.298661
-30527.917991
-30348.778654
-30165.986383
-30527.917991
-30348.778654
-30165.986383
-30527.917991
-30348.778654
-30165.986383
-29970.584264
-29795.330243
-29647.211261
-29970.584264
-29795.330243
-29647.211261
-29970.584264
-29795.330243
-29647.211261
-29427.988800
-29270.583027
-29099.062235
-29427.988800
-29270.583027
-29099.062235
-29427.988800
-29270.583027
-29099.062235
-28868.080356
-28709.050772
-28534.599935
-28868.080356
-28709.050772
-28534.599935
-28868.080356
-28709.050772
-28534.599935
-28323.410476
-28158.664628
-28003.925787
-28323.410476
-28158.664628
-28003.925787
-28323.410476
-28158.664628
-28003.925787
-27760.550947
-27640.668891
-27457.267327
-27760.550947
-27640.668891
-27457.267327
-27760.550947
-27640.668891
-27457.267327
-27234.627406
-27055.149406
-26910.447152
-27234.627406
-27055.149406
-26910.447152
-27234.627406
-27055.149406
-26910.447152
-26679.184137
-26543.936222
-26359.544285
-26679.184137
-26543.936222
-26359.544285
-26679.184137
-26543.936222
-26359.544285
-26166.033112
-25953.377736
-25799.088644
-26166.033112
-25953.377736
-25799.088644
-26166.033112
-25953.377736
-25799.088644
-25614.324790
-25411.905483
-25262.760563
-25614.324790
-25411.905483
-25262.760563
-25614.324790
-25411.905483
-25262.760563
-25067.506862
-24885.176322
-24701.066459
-25067.506862
-24885.176322
-24701.066459
-25067.506862
-24885.176322
-24701.066459
-24521.588081
-24333.768735
-24149.086437
-24521.588081
-24333.768735
-24149.086437
-24521.588081
-24333.768735
-24149.086437
-23933.834880
-23801.031135
-23615.430406
-23933.834880
-23801.031135
-23615.430406
-23933.834880
-23801.031135
-23615.430406
-23403.295975
-23260.077475
-23075.498429
-23403.295975
-23260.077475
-23075.498429
-23403.295975
-23260.077475
-23075.498429
-22838.691388
-22709.298350
-22531.501253
-22838.691388
-22709.298350
-22531.501253
-22838.691388
-22709.298350
-22531.501253
-22330.242972
-22160.573681
-21980.140316
-22330.242972
-22160.573681
-21980.140316
-22330.242972
-22160.573681
-21980.140316
-21781.615038
-21582.571022
-21436.620022
-21781.615038
-21582.571022
-21436.620022
-21781.615038
-21582.571022
-21436.620022
-21232.329062
-21063.938751
-20881.229568
-21232.329062
-21063.938751
-20881.229568
-21232.329062
-21063.938751
-20881.229568
-20671.329432
-20510.407036
-20317.345951
-20671.329432
-20510.407036
-20317.345951
-20671.329432
-20510.407036
-20317.345951
-20131.428165
-19961.459840
-19799.121980
-20131.428165
-19961.459840
-19799.121980
-20131.428165
-19961.459840
-19799.121980
-19572.415345
-19428.198993
-19248.574055
-19572.415345
-19428.198993
-19248.574055
-19572.415345
-19428.198993
-19248.574055
-19024.246914
-18872.334755
-18687.793475
-19024.246914
-18872.334755
-18687.793475
-19024.246914
-18872.334755
-18687.793475
-18486.561871
-18312.910665
-18160.460038
-18486.561871
-18312.910665
-18160.460038
-18486.561871
-18312.910665
-18160.460038
-17951.653071
-17768.494467
-17605.350866
-17951.653071
-17768.494467
-17605.350866
-17951.653071
-17768.494467
-17605.350866
-17378.869327
-17247.783296
-17074.906036
-17378.869327
-17247.783296
-17074.906036
-17378.869327
-17247.783296
-17074.906036
-16834.146921
-16693.429811
-16498.132048
-16834.146921
-16693.429811
-16498.132048
-16834.146921
-16693.429811
-16498.132048
-16303.501182
-16105.904322
-15979.571589
-16303.501182
-16105.904322
-15979.571589
-16303.501182
-16105.904322
-15979.571589
-15770.950695
-15571.617917
-15410.876939
-15770.950695
-15571.617917
-15410.876939
-15770.950695
-15571.617917
-15410.876939
-15212.210797
-15034.054692
-14859.764692
-15212.210797
-15034.054692
-14859.764692
-15212.210797
-15034.054692
-14859.764692
-14687.359597
-14476.393469
-14331.704660
-14687.359597
-14476.393469
-14331.704660
-14687.359597
-14476.393469
-14331.704660
-14103.843820
-13936.993192
-13777.361410
-14103.843820
-13936.993192
-13777.361410
-14103.843820
-13936.993192
-13777.361410
-13583.313340
-13395.873716
-13207.799250
-13583.313340
-13395.873716
-13207.799250
-13583.313340
-13395.873716
-13207.799250
-13042.102061
-12842.512565
-12678.230277
-13042.102061
-12842.512565
-12678.230277
-13042.102061
-12842.512565
-12678.230277
-12495.423874
-12313.490233
-12102.480909
-12495.423874
-12313.490233
-12102.480909
-12495.423874
-12313.490233
-12102.480909
-11941.515419
-11774.608769
-11570.491782
-11941.515419
-11774.608769
-11570.491782
-11941.515419
-11774.608769
-11570.491782
-11394.882089
-11210.760956
-11033.818462
-11394.882089
-11210.760956
-11033.818462
-11394.882089
-11210.760956
-11033.818462
-10836.378270
-10678.997853
-10482.487652
-10836.378270
-10678.997853
-10482.487652
-10836.378270
-10678.997853
-10482.487652
-10293.260552
-10111.804484
-9925.882099
-10293.260552
-10111.804484
-9925.882099
-10293.260552
-10111.804484
-9925.882099
-9760.848310
-9572.817843
-9386.175806
-9760.848310
-9572.817843
-9386.175806
-9760.848310
-9572.817843
-9386.175806
-9187.888999
-9035.421975
-8844.599617
-9187.888999
-9035.421975
-8844.599617
-9187.888999
-9035.421975
-8844.599617
-8656.884386
-8481.506209
-8307.264383
-8656.884386
-8481.506209
-8307.264383
-8656.884386
-8481.506209
-8307.264383
-8082.836858
-7943.062870
-7763.666617
-8082.836858
-7943.062870
-7763.666617
-8082.836858
-7943.062870
-7763.666617
-7550.880952
-7365.435045
-7222.060076
-7550.880952
-7365.435045
-7222.060076
-7550.880952
-7365.435045
-7222.060076
-7014.003307
-6839.130622
-6660.274240
-7014.003307
-6839.130622
-6660.274240
-7014.003307
-6839.130622
-6660.274240
-6464.579177
-6289.821142
-6109.915576
-6464.579177
-6289.821142
-6109.915576
-6464.579177
-6289.821142
-6109.915576
-5912.676503
-5752.444184
-5547.570604
-5912.676503
-5752.444184
-5547.570604
-5912.676503
-5752.444184
-5547.570604
-5378.488923
-5199.841988
-5013.186092
-5378.488923
-5199.841988
-5013.186092
-5378.488923
-5199.841988
-5013.186092
-4815.895989
-4666.100701
-4475.143691
-4815.895989
-4666.100701
-4475.143691
-4815.895989
-4666.100701
-4475.143691
-4274.506812
-4097.632196
-3940.583514
-4274.506812
-4097.632196
-3940.583514
-4274.506812
-4097.632196
-3940.583514
-3728.889518
-3545.984809
-3382.232336
-3728.889518
-3545.984809
-3382.232336
-3728.889518
-3545.984809
-3382.232336
-3185.339122
-2998.185490
-2843.547703
-3185.339122
-2998.185490
-2843.547703
-3185.339122
-2998.185490
-2843.547703
-2641.624404
-2429.106809
-2298.390411
-2641.624404
-2429.106809
-2298.390411
-2641.624404
-2429.106809
-2298.390411
-2093.317289
-1900.892064
-1752.417023
-2093.317289
-1900.892064
-1752.417023
-2093.317289
-1900.892064
-1752.417023
-1558.668874
-1346.643532
-1189.255476
-1558.668874
-1346.643532
-1189.255476
-1558.668874
-1346.643532