# vtk DataFile Version 2.0
MATLAB generated vtk file, WMC
ASCII
DATASET UNSTRUCTURED_GRID
<<<<<<< Updated upstream
POINTS 2048 double
0.024414 0.014378 0.000000 
0.024414 0.043133 0.000000 
0.073242 0.014378 0.000000 
0.073242 0.043133 0.000000 
0.024414 0.071893 0.000000 
0.024414 0.100668 0.000000 
0.073242 0.071893 0.000000 
0.073242 0.100668 0.000000 
0.024414 0.129452 0.000000 
0.024414 0.158246 0.000000 
0.073242 0.129452 0.000000 
0.073242 0.158246 0.000000 
0.024414 0.187049 0.000000 
0.024414 0.215864 0.000000 
0.073242 0.187049 0.000000 
0.073242 0.215864 0.000000 
0.024414 0.244686 0.000000 
0.024414 0.273520 0.000000 
0.073242 0.244686 0.000000 
0.073242 0.273520 0.000000 
0.024414 0.302364 0.000000 
0.024414 0.331217 0.000000 
0.073242 0.302364 0.000000 
0.073242 0.331217 0.000000 
0.024414 0.360079 0.000000 
0.024414 0.388951 0.000000 
0.073242 0.360079 0.000000 
0.073242 0.388951 0.000000 
0.024414 0.417833 0.000000 
0.024414 0.446725 0.000000 
0.073242 0.417833 0.000000 
0.073242 0.446725 0.000000 
0.024414 0.475627 0.000000 
0.024414 0.504538 0.000000 
0.073242 0.475627 0.000000 
0.073242 0.504538 0.000000 
0.024414 0.533460 0.000000 
0.024414 0.562392 0.000000 
0.073242 0.533460 0.000000 
0.073242 0.562392 0.000000 
0.024414 0.591334 0.000000 
0.024414 0.620284 0.000000 
0.073242 0.591334 0.000000 
0.073242 0.620284 0.000000 
0.024414 0.649246 0.000000 
0.024414 0.678218 0.000000 
0.073242 0.649246 0.000000 
0.073242 0.678218 0.000000 
0.024414 0.707200 0.000000 
0.024414 0.736191 0.000000 
0.073242 0.707200 0.000000 
0.073242 0.736191 0.000000 
0.024414 0.765192 0.000000 
0.024414 0.794204 0.000000 
0.073242 0.765192 0.000000 
0.073242 0.794204 0.000000 
0.024414 0.823223 0.000000 
0.024414 0.852253 0.000000 
0.073242 0.823223 0.000000 
0.073242 0.852253 0.000000 
0.024414 0.881293 0.000000 
0.024414 0.910345 0.000000 
0.073242 0.881293 0.000000 
0.073242 0.910345 0.000000 
0.024414 0.939406 0.000000 
0.024414 0.968478 0.000000 
0.073242 0.939406 0.000000 
0.073242 0.968478 0.000000 
0.024414 0.997559 0.000000 
0.024414 1.026649 0.000000 
0.073242 0.997559 0.000000 
0.073242 1.026649 0.000000 
0.024414 1.055751 0.000000 
0.024414 1.084861 0.000000 
0.073242 1.055751 0.000000 
0.073242 1.084861 0.000000 
0.024414 1.113983 0.000000 
0.024414 1.143114 0.000000 
0.073242 1.113983 0.000000 
0.073242 1.143114 0.000000 
0.024414 1.172255 0.000000 
0.024414 1.201408 0.000000 
0.073242 1.172255 0.000000 
0.073242 1.201408 0.000000 
0.024414 1.230568 0.000000 
0.024414 1.259741 0.000000 
0.073242 1.230568 0.000000 
0.073242 1.259741 0.000000 
0.024414 1.288922 0.000000 
0.024414 1.318112 0.000000 
0.073242 1.288922 0.000000 
0.073242 1.318112 0.000000 
0.024414 1.347315 0.000000 
0.024414 1.376526 0.000000 
0.073242 1.347315 0.000000 
0.073242 1.376526 0.000000 
0.024414 1.405749 0.000000 
0.024414 1.434981 0.000000 
0.073242 1.405749 0.000000 
0.073242 1.434981 0.000000 
0.024414 1.464223 0.000000 
0.024414 1.493478 0.000000 
0.073242 1.464223 0.000000 
0.073242 1.493478 0.000000 
0.024414 1.522740 0.000000 
0.024414 1.552012 0.000000 
0.073242 1.522740 0.000000 
0.073242 1.552012 0.000000 
0.024414 1.581296 0.000000 
0.024414 1.610590 0.000000 
0.073242 1.581296 0.000000 
0.073242 1.610590 0.000000 
0.024414 1.639893 0.000000 
0.024414 1.669209 0.000000 
0.073242 1.639893 0.000000 
0.073242 1.669209 0.000000 
0.024414 1.698532 0.000000 
0.024414 1.727867 0.000000 
0.073242 1.698532 0.000000 
0.073242 1.727867 0.000000 
0.024414 1.757212 0.000000 
0.024414 1.786566 0.000000 
0.073242 1.757212 0.000000 
0.073242 1.786566 0.000000 
0.024414 1.815933 0.000000 
0.024414 1.845309 0.000000 
0.073242 1.815933 0.000000 
0.073242 1.845309 0.000000 
0.024414 1.874693 0.000000 
0.024414 1.904089 0.000000 
0.073242 1.874693 0.000000 
0.073242 1.904089 0.000000 
0.024414 1.933498 0.000000 
0.024414 1.962914 0.000000 
0.073242 1.933498 0.000000 
0.073242 1.962914 0.000000 
0.024414 1.992342 0.000000 
0.024414 2.021781 0.000000 
0.073242 1.992342 0.000000 
0.073242 2.021781 0.000000 
0.024414 2.051227 0.000000 
0.024414 2.080686 0.000000 
0.073242 2.051227 0.000000 
0.073242 2.080686 0.000000 
0.024414 2.110155 0.000000 
0.024414 2.139633 0.000000 
0.073242 2.110155 0.000000 
0.073242 2.139633 0.000000 
0.024414 2.169123 0.000000 
0.024414 2.198623 0.000000 
0.073242 2.169123 0.000000 
0.073242 2.198623 0.000000 
0.024414 2.228133 0.000000 
0.024414 2.257652 0.000000 
0.073242 2.228133 0.000000 
0.073242 2.257652 0.000000 
0.024414 2.287184 0.000000 
0.024414 2.316727 0.000000 
0.073242 2.287184 0.000000 
0.073242 2.316727 0.000000 
0.024414 2.346277 0.000000 
0.024414 2.375841 0.000000 
0.073242 2.346277 0.000000 
0.073242 2.375841 0.000000 
0.024414 2.405413 0.000000 
0.024414 2.434997 0.000000 
0.073242 2.405413 0.000000 
0.073242 2.434997 0.000000 
0.024414 2.464592 0.000000 
0.024414 2.494196 0.000000 
0.073242 2.464592 0.000000 
0.073242 2.494196 0.000000 
0.024414 2.523812 0.000000 
0.024414 2.553437 0.000000 
0.073242 2.523812 0.000000 
0.073242 2.553437 0.000000 
0.024414 2.583075 0.000000 
0.024414 2.612721 0.000000 
0.073242 2.583075 0.000000 
0.073242 2.612721 0.000000 
0.024414 2.642378 0.000000 
0.024414 2.672046 0.000000 
0.073242 2.642378 0.000000 
0.073242 2.672046 0.000000 
0.024414 2.701724 0.000000 
0.024414 2.731412 0.000000 
0.073242 2.701724 0.000000 
0.073242 2.731412 0.000000 
0.024414 2.761114 0.000000 
0.024414 2.790822 0.000000 
0.073242 2.761114 0.000000 
0.073242 2.790822 0.000000 
0.024414 2.820543 0.000000 
0.024414 2.850275 0.000000 
0.073242 2.820543 0.000000 
0.073242 2.850275 0.000000 
0.024414 2.880015 0.000000 
0.024414 2.909770 0.000000 
0.073242 2.880015 0.000000 
0.073242 2.909770 0.000000 
0.024414 2.939532 0.000000 
0.024414 2.969307 0.000000 
0.073242 2.939532 0.000000 
0.073242 2.969307 0.000000 
0.024414 2.999092 0.000000 
0.024414 3.028887 0.000000 
0.073242 2.999092 0.000000 
0.073242 3.028887 0.000000 
0.024414 3.058695 0.000000 
0.024414 3.088511 0.000000 
0.073242 3.058695 0.000000 
0.073242 3.088511 0.000000 
0.024414 3.118340 0.000000 
0.024414 3.148179 0.000000 
0.073242 3.118340 0.000000 
0.073242 3.148179 0.000000 
0.024414 3.178027 0.000000 
0.024414 3.207887 0.000000 
0.073242 3.178027 0.000000 
0.073242 3.207887 0.000000 
0.024414 3.237757 0.000000 
0.024414 3.267638 0.000000 
0.073242 3.237757 0.000000 
0.073242 3.267638 0.000000 
0.024414 3.297530 0.000000 
0.024414 3.327434 0.000000 
0.073242 3.297530 0.000000 
0.073242 3.327434 0.000000 
0.024414 3.357347 0.000000 
0.024414 3.387271 0.000000 
0.073242 3.357347 0.000000 
0.073242 3.387271 0.000000 
0.024414 3.417207 0.000000 
0.024414 3.447151 0.000000 
0.073242 3.417207 0.000000 
0.073242 3.447151 0.000000 
0.024414 3.477110 0.000000 
0.024414 3.507077 0.000000 
0.073242 3.477110 0.000000 
0.073242 3.507077 0.000000 
0.024414 3.537056 0.000000 
0.024414 3.567046 0.000000 
0.073242 3.537056 0.000000 
0.073242 3.567046 0.000000 
0.024414 3.597045 0.000000 
0.024414 3.627057 0.000000 
0.073242 3.597045 0.000000 
0.073242 3.627057 0.000000 
0.024414 3.657080 0.000000 
0.024414 3.687115 0.000000 
0.073242 3.657080 0.000000 
0.073242 3.687115 0.000000 
0.024414 3.717159 0.000000 
0.024414 3.747214 0.000000 
0.073242 3.717159 0.000000 
0.073242 3.747214 0.000000 
0.024414 3.777280 0.000000 
0.024414 3.807358 0.000000 
0.073242 3.777280 0.000000 
0.073242 3.807358 0.000000 
0.024414 3.837446 0.000000 
0.024414 3.867544 0.000000 
0.073242 3.837446 0.000000 
0.073242 3.867544 0.000000 
0.024414 3.897655 0.000000 
0.024414 3.927776 0.000000 
0.073242 3.897655 0.000000 
0.073242 3.927776 0.000000 
0.024414 3.957907 0.000000 
0.024414 3.988051 0.000000 
0.073242 3.957907 0.000000 
0.073242 3.988051 0.000000 
0.024414 4.018206 0.000000 
0.024414 4.048369 0.000000 
0.073242 4.018206 0.000000 
0.073242 4.048369 0.000000 
0.024414 4.078547 0.000000 
0.024414 4.108734 0.000000 
0.073242 4.078547 0.000000 
0.073242 4.108734 0.000000 
0.024414 4.138931 0.000000 
0.024414 4.169142 0.000000 
0.073242 4.138931 0.000000 
0.073242 4.169142 0.000000 
0.024414 4.199361 0.000000 
0.024414 4.229593 0.000000 
0.073242 4.199361 0.000000 
0.073242 4.229593 0.000000 
0.024414 4.259837 0.000000 
0.024414 4.290089 0.000000 
0.073242 4.259837 0.000000 
0.073242 4.290089 0.000000 
0.024414 4.320355 0.000000 
0.024414 4.350631 0.000000 
0.073242 4.320355 0.000000 
0.073242 4.350631 0.000000 
0.024414 4.380920 0.000000 
0.024414 4.411218 0.000000 
0.073242 4.380920 0.000000 
0.073242 4.411218 0.000000 
0.024414 4.441528 0.000000 
0.024414 4.471851 0.000000 
0.073242 4.441528 0.000000 
0.073242 4.471851 0.000000 
0.024414 4.502180 0.000000 
0.024414 4.532525 0.000000 
0.073242 4.502180 0.000000 
0.073242 4.532525 0.000000 
0.024414 4.562879 0.000000 
0.024414 4.593246 0.000000 
0.073242 4.562879 0.000000 
0.073242 4.593246 0.000000 
0.024414 4.623624 0.000000 
0.024414 4.654013 0.000000 
0.073242 4.623624 0.000000 
0.073242 4.654013 0.000000 
0.024414 4.684412 0.000000 
0.024414 4.714824 0.000000 
0.073242 4.684412 0.000000 
0.073242 4.714824 0.000000 
0.024414 4.745247 0.000000 
0.024414 4.775678 0.000000 
0.073242 4.745247 0.000000 
0.073242 4.775678 0.000000 
0.024414 4.806124 0.000000 
0.024414 4.836579 0.000000 
0.073242 4.806124 0.000000 
0.073242 4.836579 0.000000 
0.024414 4.867046 0.000000 
0.024414 4.897526 0.000000 
0.073242 4.867046 0.000000 
0.073242 4.897526 0.000000 
0.024414 4.928016 0.000000 
0.024414 4.958518 0.000000 
0.073242 4.928016 0.000000 
0.073242 4.958518 0.000000 
0.024414 4.989031 0.000000 
0.024414 5.019554 0.000000 
0.073242 4.989031 0.000000 
0.073242 5.019554 0.000000 
0.024414 5.050091 0.000000 
0.024414 5.080638 0.000000 
0.073242 5.050091 0.000000 
0.073242 5.080638 0.000000 
0.024414 5.111199 0.000000 
0.024414 5.141769 0.000000 
0.073242 5.111199 0.000000 
0.073242 5.141769 0.000000 
0.024414 5.172350 0.000000 
0.024414 5.202943 0.000000 
0.073242 5.172350 0.000000 
0.073242 5.202943 0.000000 
[...]
POINT_DATA 2048
=======
POINTS 288 double
0.520833 0.313671 0.000000 
0.520833 0.941013 0.000000 
0.520833 1.568355 0.000000 
0.520833 2.195698 0.000000 
0.520833 2.823040 0.000000 
0.520833 3.450382 0.000000 
1.562500 0.313671 0.000000 
1.562500 0.941013 0.000000 
1.562500 1.568355 0.000000 
1.562500 2.195698 0.000000 
1.562500 2.823040 0.000000 
1.562500 3.450382 0.000000 
2.604167 0.313671 0.000000 
2.604167 0.941013 0.000000 
2.604167 1.568355 0.000000 
2.604167 2.195698 0.000000 
2.604167 2.823040 0.000000 
2.604167 3.450382 0.000000 
3.645833 0.313671 0.000000 
3.645833 0.941013 0.000000 
3.645833 1.568355 0.000000 
3.645833 2.195698 0.000000 
3.645833 2.823040 0.000000 
3.645833 3.450382 0.000000 
4.687500 0.313671 0.000000 
4.687500 0.941013 0.000000 
4.687500 1.568355 0.000000 
4.687500 2.195698 0.000000 
4.687500 2.823040 0.000000 
4.687500 3.450382 0.000000 
5.729167 0.313671 0.000000 
5.729167 0.941013 0.000000 
5.729167 1.568355 0.000000 
5.729167 2.195698 0.000000 
5.729167 2.823040 0.000000 
5.729167 3.450382 0.000000 
0.520833 4.081752 0.000000 
0.520833 4.723822 0.000000 
0.520833 5.375904 0.000000 
0.520833 6.037464 0.000000 
0.520833 6.704676 0.000000 
0.520833 7.372269 0.000000 
1.562500 4.081752 0.000000 
1.562500 4.723822 0.000000 
1.562500 5.375904 0.000000 
1.562500 6.037464 0.000000 
1.562500 6.704676 0.000000 
1.562500 7.372269 0.000000 
2.604167 4.081752 0.000000 
2.604167 4.723822 0.000000 
2.604167 5.375904 0.000000 
2.604167 6.037464 0.000000 
2.604167 6.704676 0.000000 
2.604167 7.372269 0.000000 
3.645833 4.081752 0.000000 
3.645833 4.723822 0.000000 
3.645833 5.375904 0.000000 
3.645833 6.037464 0.000000 
3.645833 6.704676 0.000000 
3.645833 7.372269 0.000000 
4.687500 4.081752 0.000000 
4.687500 4.723822 0.000000 
4.687500 5.375904 0.000000 
4.687500 6.037464 0.000000 
4.687500 6.704676 0.000000 
4.687500 7.372269 0.000000 
5.729167 4.081752 0.000000 
5.729167 4.723822 0.000000 
5.729167 5.375904 0.000000 
5.729167 6.037464 0.000000 
5.729167 6.704676 0.000000 
5.729167 7.372269 0.000000 
0.520833 8.043518 0.000000 
0.520833 8.721390 0.000000 
0.520833 9.405743 0.000000 
0.520833 10.096508 0.000000 
0.520833 10.793470 0.000000 
0.520833 11.495993 0.000000 
1.562500 8.043518 0.000000 
1.562500 8.721390 0.000000 
1.562500 9.405743 0.000000 
1.562500 10.096508 0.000000 
1.562500 10.793470 0.000000 
1.562500 11.495993 0.000000 
2.604167 8.043518 0.000000 
2.604167 8.721390 0.000000 
2.604167 9.405743 0.000000 
2.604167 10.096508 0.000000 
2.604167 10.793470 0.000000 
2.604167 11.495993 0.000000 
3.645833 8.043518 0.000000 
3.645833 8.721390 0.000000 
3.645833 9.405743 0.000000 
3.645833 10.096508 0.000000 
3.645833 10.793470 0.000000 
3.645833 11.495993 0.000000 
4.687500 8.043518 0.000000 
4.687500 8.721390 0.000000 
4.687500 9.405743 0.000000 
4.687500 10.096508 0.000000 
4.687500 10.793470 0.000000 
4.687500 11.495993 0.000000 
5.729167 8.043518 0.000000 
5.729167 8.721390 0.000000 
5.729167 9.405743 0.000000 
5.729167 10.096508 0.000000 
5.729167 10.793470 0.000000 
5.729167 11.495993 0.000000 
0.520833 12.207265 0.000000 
0.520833 12.926648 0.000000 
0.520833 13.651935 0.000000 
0.520833 14.382484 0.000000 
0.520833 15.118115 0.000000 
0.520833 15.858952 0.000000 
1.562500 12.207265 0.000000 
1.562500 12.926648 0.000000 
1.562500 13.651935 0.000000 
1.562500 14.382484 0.000000 
1.562500 15.118115 0.000000 
1.562500 15.858952 0.000000 
2.604167 12.207265 0.000000 
2.604167 12.926648 0.000000 
2.604167 13.651935 0.000000 
2.604167 14.382484 0.000000 
2.604167 15.118115 0.000000 
2.604167 15.858952 0.000000 
3.645833 12.207265 0.000000 
3.645833 12.926648 0.000000 
3.645833 13.651935 0.000000 
3.645833 14.382484 0.000000 
3.645833 15.118115 0.000000 
3.645833 15.858952 0.000000 
4.687500 12.207265 0.000000 
4.687500 12.926648 0.000000 
4.687500 13.651935 0.000000 
4.687500 14.382484 0.000000 
4.687500 15.118115 0.000000 
4.687500 15.858952 0.000000 
5.729167 12.207265 0.000000 
5.729167 12.926648 0.000000 
5.729167 13.651935 0.000000 
5.729167 14.382484 0.000000 
5.729167 15.118115 0.000000 
5.729167 15.858952 0.000000 
0.520833 16.608821 0.000000 
0.520833 17.368789 0.000000 
0.520833 18.140253 0.000000 
0.520833 18.920639 0.000000 
0.520833 19.706896 0.000000 
0.520833 20.498717 0.000000 
1.562500 16.608821 0.000000 
1.562500 17.368789 0.000000 
1.562500 18.140253 0.000000 
1.562500 18.920639 0.000000 
1.562500 19.706896 0.000000 
1.562500 20.498717 0.000000 
2.604167 16.608821 0.000000 
2.604167 17.368789 0.000000 
2.604167 18.140253 0.000000 
2.604167 18.920639 0.000000 
2.604167 19.706896 0.000000 
2.604167 20.498717 0.000000 
3.645833 16.608821 0.000000 
3.645833 17.368789 0.000000 
3.645833 18.140253 0.000000 
3.645833 18.920639 0.000000 
3.645833 19.706896 0.000000 
3.645833 20.498717 0.000000 
4.687500 16.608821 0.000000 
4.687500 17.368789 0.000000 
4.687500 18.140253 0.000000 
4.687500 18.920639 0.000000 
4.687500 19.706896 0.000000 
4.687500 20.498717 0.000000 
5.729167 16.608821 0.000000 
5.729167 17.368789 0.000000 
5.729167 18.140253 0.000000 
5.729167 18.920639 0.000000 
5.729167 19.706896 0.000000 
5.729167 20.498717 0.000000 
0.520833 21.299826 0.000000 
0.520833 22.111001 0.000000 
0.520833 22.932982 0.000000 
0.520833 23.765215 0.000000 
0.520833 24.610486 0.000000 
0.520833 25.463458 0.000000 
1.562500 21.299826 0.000000 
1.562500 22.111001 0.000000 
1.562500 22.932982 0.000000 
1.562500 23.765215 0.000000 
1.562500 24.610486 0.000000 
1.562500 25.463458 0.000000 
2.604167 21.299826 0.000000 
2.604167 22.111001 0.000000 
2.604167 22.932982 0.000000 
2.604167 23.765215 0.000000 
2.604167 24.610486 0.000000 
2.604167 25.463458 0.000000 
3.645833 21.299826 0.000000 
3.645833 22.111001 0.000000 
3.645833 22.932982 0.000000 
3.645833 23.765215 0.000000 
3.645833 24.610486 0.000000 
3.645833 25.463458 0.000000 
4.687500 21.299826 0.000000 
4.687500 22.111001 0.000000 
4.687500 22.932982 0.000000 
4.687500 23.765215 0.000000 
4.687500 24.610486 0.000000 
4.687500 25.463458 0.000000 
5.729167 21.299826 0.000000 
5.729167 22.111001 0.000000 
5.729167 22.932982 0.000000 
5.729167 23.765215 0.000000 
5.729167 24.610486 0.000000 
5.729167 25.463458 0.000000 
0.520833 26.327414 0.000000 
0.520833 27.203637 0.000000 
0.520833 28.090669 0.000000 
0.520833 28.990617 0.000000 
0.520833 29.904097 0.000000 
0.520833 30.831201 0.000000 
1.562500 26.327414 0.000000 
1.562500 27.203637 0.000000 
1.562500 28.090669 0.000000 
1.562500 28.990617 0.000000 
1.562500 29.904097 0.000000 
1.562500 30.831201 0.000000 
2.604167 26.327414 0.000000 
2.604167 27.203637 0.000000 
2.604167 28.090669 0.000000 
2.604167 28.990617 0.000000 
2.604167 29.904097 0.000000 
2.604167 30.831201 0.000000 
3.645833 26.327414 0.000000 
3.645833 27.203637 0.000000 
3.645833 28.090669 0.000000 
3.645833 28.990617 0.000000 
3.645833 29.904097 0.000000 
3.645833 30.831201 0.000000 
4.687500 26.327414 0.000000 
4.687500 27.203637 0.000000 
4.687500 28.090669 0.000000 
4.687500 28.990617 0.000000 
4.687500 29.904097 0.000000 
4.687500 30.831201 0.000000 
5.729167 26.327414 0.000000 
5.729167 27.203637 0.000000 
5.729167 28.090669 0.000000 
5.729167 28.990617 0.000000 
5.729167 29.904097 0.000000 
5.729167 30.831201 0.000000 
0.520833 31.775868 0.000000 
0.520833 32.733123 0.000000 
0.520833 33.702163 0.000000 
0.520833 34.688051 0.000000 
0.520833 35.689052 0.000000 
0.520833 36.708173 0.000000 
1.562500 31.775868 0.000000 
1.562500 32.733123 0.000000 
1.562500 33.702163 0.000000 
1.562500 34.688051 0.000000 
1.562500 35.689052 0.000000 
1.562500 36.708173 0.000000 
2.604167 31.775868 0.000000 
2.604167 32.733123 0.000000 
2.604167 33.702163 0.000000 
2.604167 34.688051 0.000000 
2.604167 35.689052 0.000000 
2.604167 36.708173 0.000000 
3.645833 31.775868 0.000000 
3.645833 32.733123 0.000000 
3.645833 33.702163 0.000000 
3.645833 34.688051 0.000000 
3.645833 35.689052 0.000000 
3.645833 36.708173 0.000000 
4.687500 31.775868 0.000000 
4.687500 32.733123 0.000000 
4.687500 33.702163 0.000000 
4.687500 34.688051 0.000000 
4.687500 35.689052 0.000000 
4.687500 36.708173 0.000000 
5.729167 31.775868 0.000000 
5.729167 32.733123 0.000000 
5.729167 33.702163 0.000000 
5.729167 34.688051 0.000000 
5.729167 35.689052 0.000000 
5.729167 36.708173 0.000000 

POINT_DATA 288
>>>>>>> Stashed changes
SCALARS sigma_xx FLOAT 1
LOOKUP_TABLE default
0.000000
0.000000
0.000000
0.000000
0.000000
0.000000
0.000000
0.000000
0.000000
<<<<<<< Updated upstream
-0.000000
0.000000
-0.000000
0.000000
-0.000000
0.000000
-0.000000
0.000000
0.000000
0.000000
0.000000
0.000000
-0.000000
0.000000
-0.000000
-0.000000
-0.000000
-0.000000
-0.000000
0.000000
-0.000000
0.000000
-0.000000
0.000000
-0.000000
0.000000
-0.000000
-0.000000
0.000000
-0.000000
0.000000
-0.000000
0.000000
-0.000000
0.000000
-0.000000
-0.000000
-0.000000
-0.000000
0.000000
-0.000000
0.000000
-0.000000
-0.000000
-0.000000
-0.000000
-0.000000
0.000000
-0.000000
0.000000
-0.000000
0.000000
0.000000
0.000000
0.000000
-0.000000
-0.000000
-0.000000
-0.000000
-0.000000
-0.000000
-0.000000
-0.000000
-0.000000
-0.000000
-0.000000
-0.000000
-0.000000
-0.000000
-0.000000
-0.000000
-0.000000
-0.000000
-0.000000
-0.000000
-0.000000
-0.000000
-0.000000
-0.000000
-0.000000
-0.000000
-0.000000
-0.000000
-0.000000
0.000000
-0.000000
0.000000
-0.000000
-0.000000
-0.000000
-0.000000
0.000000
-0.000000
0.000000
-0.000000
-0.000000
-0.000000
-0.000000
-0.000000
-0.000000
-0.000000
-0.000000
-0.000000
-0.000000
0.000000
-0.000000
0.000000
-0.000000
0.000000
-0.000000
0.000000
0.000000
-0.000000
0.000000
-0.000000
-0.000000
-0.000000
-0.000000
0.000000
-0.000000
0.000000
-0.000000
0.000000
-0.000000
0.000000
-0.000000
0.000000
-0.000000
-0.000000
-0.000000
-0.000000
-0.000000
-0.000000
-0.000000
-0.000000
-0.000000
-0.000000
-0.000000
-0.000000
0.000000
-0.000000
0.000000
-0.000000
-0.000000
-0.000000
-0.000000
-0.000000
-0.000000
0.000000
-0.000000
0.000000
0.000000
0.000000
0.000000
0.000000
-0.000000
-0.000000
-0.000000
-0.000000
-0.000000
-0.000000
-0.000000
-0.000000
0.000000
0.000000
0.000000
0.000000
-0.000000
-0.000000
-0.000000
-0.000000
-0.000000
-0.000000
-0.000000
-0.000000
-0.000000
-0.000000
-0.000000
-0.000000
-0.000000
-0.000000
-0.000000
-0.000000
-0.000000
0.000000
-0.000000
0.000000
-0.000000
-0.000000
-0.000000
-0.000000
0.000000
-0.000000
0.000000
-0.000000
-0.000000
-0.000000
-0.000000
-0.000000
-0.000000
0.000000
-0.000000
-0.000000
-0.000000
0.000000
-0.000000
0.000000
-0.000000
-0.000000
-0.000000
-0.000000
-0.000000
-0.000000
-0.000000
-0.000000
-0.000000
0.000000
-0.000000
0.000000
-0.000000
-0.000000
-0.000000
-0.000000
-0.000000
-0.000000
-0.000000
-0.000000
-0.000000
-0.000000
-0.000000
-0.000000
-0.000000
-0.000000
-0.000000
-0.000000
-0.000000
-0.000000
-0.000000
-0.000000
-0.000000
-0.000000
-0.000000
-0.000000
-0.000000
-0.000000
-0.000000
-0.000000
-0.000000
-0.000000
-0.000000
-0.000000
-0.000000
-0.000000
-0.000000
-0.000000
-0.000000
-0.000000
-0.000000
-0.000000
-0.000000
-0.000000
-0.000000
-0.000000
0.000000
0.000000
0.000000
0.000000
-0.000000
0.000000
-0.000000
0.000000
-0.000000
-0.000000
-0.000000
-0.000000
-0.000000
-0.000000
-0.000000
-0.000000
-0.000000
0.000000
-0.000000
0.000000
0.000000
-0.000000
0.000000
-0.000000
-0.000000
-0.000000
-0.000000
-0.000000
-0.000000
-0.000000
-0.000000
-0.000000
-0.000000
-0.000000
-0.000000
-0.000000
-0.000000
-0.000000
-0.000000
-0.000000
-0.000000
-0.000000
-0.000000
-0.000000
-0.000000
-0.000000
-0.000000
-0.000000
-0.000000
-0.000000
-0.000000
-0.000000
0.000000
-0.000000
-0.000000
-0.000000
-0.000000
-0.000000
-0.000000
-0.000000
-0.000000
0.000000
0.000000
-0.000000
-0.000000
-0.000000
-0.000000
-0.000000
-0.000000
-0.000000
-0.000000
-0.000000
-0.000000
-0.000000
-0.000000
-0.000000
-0.000000
-0.000000
-0.000000
-0.000000
0.000000
-0.000000
0.000000
-0.000000
-0.000000
-0.000000
-0.000000
-0.000000
-0.000000
-0.000000
-0.000000
-0.000000
-0.000000
-0.000000
-0.000000
-0.000000
-0.000000
-0.000000
-0.000000
-0.000000
-0.000000
-0.000000
-0.000000
-0.000000
0.000000
-0.000000
0.000000
-0.000000
-0.000000
-0.000000
-0.000000
-0.000000
0.000000
-0.000000
0.000000
-0.000000
-0.000000
-0.000000
-0.000000
-0.000000
-0.000000
-0.000000
-0.000000
-0.000000
-0.000000
-0.000000
-0.000000
-0.000000
-0.000000
-0.000000
-0.000000
-0.000000
-0.000000
-0.000000
-0.000000
-0.000000
0.000000
-0.000000
0.000000
-0.000000
-0.000000
-0.000000
0.000000
-0.000000
-0.000000
-0.000000
-0.000000
-0.000000
-0.000000
-0.000000
-0.000000
-0.000000
-0.000000
-0.000000
-0.000000
-0.000000
-0.000000
-0.000000
-0.000000
-0.000000
-0.000000
-0.000000
-0.000000
-0.000000
-0.000000
-0.000000
-0.000000
-0.000000
-0.000000
-0.000000
-0.000000
-0.000000
-0.000000
-0.000000
-0.000000
0.000000
-0.000000
-0.000000
-0.000000
-0.000000
-0.000000
0.000000
-0.000000
-0.000000
-0.000000
0.000000
-0.000000
0.000000
-0.000000
-0.000000
-0.000000
-0.000000
-0.000000
-0.000000
-0.000000
-0.000000
-0.000000
-0.000000
-0.000000
-0.000000
-0.000000
-0.000000
-0.000000
-0.000000
-0.000000
-0.000000
-0.000000
-0.000000
-0.000000
-0.000000
-0.000000
-0.000000
-0.000000
-0.000000
-0.000000
-0.000000
-0.000000
-0.000000
-0.000000
-0.000000
-0.000000
-0.000000
-0.000000
-0.000000
-0.000000
0.000000
-0.000000
0.000000
-0.000000
-0.000000
-0.000000
-0.000000
-0.000000
-0.000000
-0.000000
-0.000000
0.000000
0.000000
0.000000
0.000000
-0.000000
0.000000
-0.000000
-0.000000
-0.000000
-0.000000
-0.000000
-0.000000
-0.000000
-0.000000
-0.000000
-0.000000
-0.000000
-0.000000
-0.000000
-0.000000
-0.000000
-0.000000
-0.000000
-0.000000
-0.000000
-0.000000
-0.000000
-0.000000
0.000000
-0.000000
0.000000
-0.000000
-0.000000
-0.000000
-0.000000
-0.000000
-0.000000
-0.000000
-0.000000
-0.000000
-0.000000
-0.000000
-0.000000
-0.000000
-0.000000
0.000000
-0.000000
0.000000
-0.000000
0.000000
-0.000000
0.000000
-0.000000
-0.000000
-0.000000
-0.000000
-0.000000
-0.000000
-0.000000
-0.000000
-0.000000
-0.000000
-0.000000
-0.000000
-0.000000
-0.000000
-0.000000
-0.000000
-0.000000
-0.000000
-0.000000
-0.000000
-0.000000
-0.000000
-0.000000
-0.000000
-0.000000
-0.000000
-0.000000
-0.000000
-0.000000
-0.000000
-0.000000
-0.000000
-0.000000
-0.000000
-0.000000
-0.000000
-0.000000
-0.000000
-0.000000
-0.000000
-0.000000
0.000000
-0.000000
0.000000
-0.000000
-0.000000
-0.000000
-0.000000
-0.000000
-0.000000
-0.000000
-0.000000
-0.000000
-0.000000
-0.000000
-0.000000
0.000000
0.000000
0.000000
0.000000
-0.000000
-0.000000
-0.000000
-0.000000
0.000000
-0.000000
0.000000
-0.000000
-0.000000
-0.000000
-0.000000
-0.000000
-0.000000
-0.000000
-0.000000
-0.000000
-0.000000
-0.000000
-0.000000
-0.000000
-0.000000
-0.000000
-0.000000
-0.000000
-0.000000
-0.000000
-0.000000
-0.000000
-0.000000
-0.000000
-0.000000
-0.000000
-0.000000
-0.000000
-0.000000
-0.000000
-0.000000
-0.000000
-0.000000
-0.000000
-0.000000
-0.000000
-0.000000
-0.000000
0.000000
-0.000000
-0.000000
-0.000000
-0.000000
-0.000000
-0.000000
-0.000000
-0.000000
-0.000000
0.000000
-0.000000
-0.000000
-0.000000
-0.000000
-0.000000
-0.000000
-0.000000
-0.000000
-0.000000
0.000000
-0.000000
0.000000
-0.000000
-0.000000
-0.000000
-0.000000
-0.000000
-0.000000
-0.000000
-0.000000
-0.000000
-0.000000
-0.000000
-0.000000
-0.000000
-0.000000
-0.000000
-0.000000
-0.000000
-0.000000
-0.000000
-0.000000
-0.000000
-0.000000
0.000000
-0.000000
0.000000
-0.000000
-0.000000
-0.000000
0.000000
-0.000000
-0.000000
-0.000000
-0.000000
-0.000000
-0.000000
-0.000000
-0.000000
-0.000000
-0.000000
-0.000000
-0.000000
-0.000000
-0.000000
-0.000000
-0.000000
-0.000000
-0.000000
-0.000000
-0.000000
-0.000000
0.000000
-0.000000
0.000000
-0.000000
-0.000000
-0.000000
-0.000000
-0.000000
-0.000000
-0.000000
-0.000000
-0.000000
-0.000000
-0.000000
-0.000000
-0.000000
-0.000000
-0.000000
-0.000000
-0.000000
-0.000000
-0.000000
-0.000000
-0.000000
-0.000000
-0.000000
-0.000000
-0.000000
-0.000000
-0.000000
-0.000000
-0.000000
-0.000000
-0.000000
-0.000000
-0.000000
-0.000000
-0.000000
-0.000000
-0.000000
-0.000000
-0.000000
-0.000000
-0.000000
-0.000000
-0.000000
-0.000000
-0.000000
-0.000000
-0.000000
-0.000000
0.000000
-0.000000
0.000000
-0.000000
-0.000000
-0.000000
-0.000000
-0.000000
0.000000
-0.000000
0.000000
-0.000000
-0.000000
-0.000000
-0.000000
-0.000000
-0.000000
-0.000000
-0.000000
-0.000000
-0.000000
-0.000000
-0.000000
-0.000000
0.000000
-0.000000
0.000000
-0.000000
-0.000000
0.000000
-0.000000
0.000000
-0.000000
-0.000000
-0.000000
-0.000000
-0.000000
-0.000000
-0.000000
-0.000000
-0.000000
-0.000000
-0.000000
-0.000000
-0.000000
-0.000000
-0.000000
-0.000000
-0.000000
-0.000000
-0.000000
-0.000000
-0.000000
-0.000000
-0.000000
-0.000000
-0.000000
-0.000000
-0.000000
-0.000000
-0.000000
-0.000000
-0.000000
-0.000000
-0.000000
0.000000
-0.000000
0.000000
-0.000000
-0.000000
-0.000000
-0.000000
-0.000000
-0.000000
-0.000000
-0.000000
-0.000000
-0.000000
-0.000000
-0.000000
-0.000000
-0.000000
-0.000000
-0.000000
-0.000000
-0.000000
-0.000000
-0.000000
-0.000000
-0.000000
-0.000000
-0.000000
-0.000000
-0.000000
-0.000000
-0.000000
-0.000000
-0.000000
-0.000000
-0.000000
-0.000000
-0.000000
-0.000000
-0.000000
0.000000
-0.000000
0.000000
-0.000000
0.000000
-0.000000
0.000000
-0.000000
0.000000
-0.000000
0.000000
-0.000000
-0.000000
-0.000000
-0.000000
-0.000000
0.000000
-0.000000
-0.000000
-0.000000
-0.000000
-0.000000
-0.000000
-0.000000
-0.000000
-0.000000
-0.000000
-0.000000
-0.000000
0.000000
-0.000000
0.000000
-0.000000
-0.000000
-0.000000
-0.000000
-0.000000
-0.000000
-0.000000
-0.000000
-0.000000
-0.000000
-0.000000
-0.000000
-0.000000
-0.000000
-0.000000
-0.000000
-0.000000
-0.000000
-0.000000
-0.000000
-0.000000
-0.000000
-0.000000
-0.000000
-0.000000
-0.000000
-0.000000
-0.000000
-0.000000
-0.000000
-0.000000
-0.000000
-0.000000
-0.000000
-0.000000
-0.000000
-0.000000
-0.000000
-0.000000
-0.000000
-0.000000
0.000000
-0.000000
0.000000
-0.000000
-0.000000
-0.000000
-0.000000
-0.000000
-0.000000
-0.000000
-0.000000
-0.000000
-0.000000
-0.000000
-0.000000
-0.000000
-0.000000
-0.000000
-0.000000
-0.000000
-0.000000
-0.000000
-0.000000
-0.000000
-0.000000
-0.000000
-0.000000
-0.000000
-0.000000
-0.000000
-0.000000
-0.000000
-0.000000
-0.000000
-0.000000
-0.000000
-0.000000
-0.000000
-0.000000
-0.000000
-0.000000
-0.000000
-0.000000
-0.000000
-0.000000
-0.000000
-0.000000
-0.000000
-0.000000
-0.000000
-0.000000
-0.000000
-0.000000
-0.000000
-0.000000
0.000000
-0.000000
-0.000000
-0.000000
-0.000000
-0.000000
-0.000000
-0.000000
-0.000000
-0.000000
-0.000000
-0.000000
-0.000000
-0.000000
-0.000000
-0.000000
-0.000000
-0.000000
-0.000000
-0.000000
-0.000000
-0.000000
-0.000000
-0.000000
-0.000000
-0.000000
-0.000000
-0.000000
-0.000000
-0.000000
-0.000000
-0.000000
0.000000
0.000000
0.000000
0.000000
-0.000000
-0.000000
-0.000000
-0.000000
-0.000000
-0.000000
-0.000000
-0.000000
-0.000000
-0.000000
-0.000000
0.000000
-0.000000
-0.000000
-0.000000
-0.000000
-0.000000
-0.000000
-0.000000
-0.000000
-0.000000
-0.000000
-0.000000
-0.000000
-0.000000
-0.000000
-0.000000
-0.000000
-0.000000
-0.000000
-0.000000
-0.000000
-0.000000
-0.000000
-0.000000
-0.000000
-0.000000
-0.000000
-0.000000
-0.000000
-0.000000
-0.000000
-0.000000
-0.000000
-0.000000
-0.000000
-0.000000
-0.000000
-0.000000
-0.000000
-0.000000
-0.000000
-0.000000
-0.000000
-0.000000
-0.000000
0.000000
-0.000000
0.000000
-0.000000
-0.000000
-0.000000
-0.000000
-0.000000
-0.000000
-0.000000
-0.000000
-0.000000
-0.000000
-0.000000
-0.000000
-0.000000
-0.000000
-0.000000
-0.000000
-0.000000
-0.000000
-0.000000
-0.000000
-0.000000
-0.000000
-0.000000
-0.000000
-0.000000
-0.000000
-0.000000
-0.000000
-0.000000
-0.000000
-0.000000
-0.000000
-0.000000
-0.000000
-0.000000
-0.000000
-0.000000
-0.000000
0.000000
-0.000000
0.000000
-0.000000
-0.000000
-0.000000
-0.000000
0.000000
-0.000000
-0.000000
0.000000
-0.000000
-0.000000
-0.000000
0.000000
-0.000000
-0.000000
-0.000000
-0.000000
-0.000000
-0.000000