# vtk DataFile Version 2.0
MATLAB generated vtk file, WMC
ASCII
DATASET UNSTRUCTURED_GRID
POINTS 576 double
0.130208 0.039362 0.000000 
0.130208 0.118087 0.000000 
0.130208 0.196812 0.000000 
0.390625 0.039362 0.000000 
0.390625 0.118087 0.000000 
0.390625 0.196812 0.000000 
0.651042 0.039362 0.000000 
0.651042 0.118087 0.000000 
0.651042 0.196812 0.000000 
0.130208 0.275621 0.000000 
0.130208 0.354693 0.000000 
0.130208 0.433994 0.000000 
0.390625 0.275621 0.000000 
0.390625 0.354693 0.000000 
0.390625 0.433994 0.000000 
0.651042 0.275621 0.000000 
0.651042 0.354693 0.000000 
0.651042 0.433994 0.000000 
0.130208 0.513523 0.000000 
0.130208 0.593345 0.000000 
0.130208 0.673429 0.000000 
0.390625 0.513523 0.000000 
0.390625 0.593345 0.000000 
0.390625 0.673429 0.000000 
0.651042 0.513523 0.000000 
0.651042 0.593345 0.000000 
0.651042 0.673429 0.000000 
0.130208 0.753775 0.000000 
0.130208 0.834402 0.000000 
0.130208 0.915233 0.000000 
0.390625 0.753775 0.000000 
0.390625 0.834402 0.000000 
0.390625 0.915233 0.000000 
0.651042 0.753775 0.000000 
0.651042 0.834402 0.000000 
0.651042 0.915233 0.000000 
0.130208 0.996282 0.000000 
0.130208 1.077577 0.000000 
0.130208 1.159101 0.000000 
0.390625 0.996282 0.000000 
0.390625 1.077577 0.000000 
0.390625 1.159101 0.000000 
0.651042 0.996282 0.000000 
0.651042 1.077577 0.000000 
0.651042 1.159101 0.000000 
0.130208 1.240864 0.000000 
0.130208 1.322883 0.000000 
0.130208 1.405160 0.000000 
0.390625 1.240864 0.000000 
0.390625 1.322883 0.000000 
0.390625 1.405160 0.000000 
0.651042 1.240864 0.000000 
0.651042 1.322883 0.000000 
0.651042 1.405160 0.000000 
0.130208 1.487709 0.000000 
0.130208 1.570539 0.000000 
0.130208 1.653617 0.000000 
0.390625 1.487709 0.000000 
0.390625 1.570539 0.000000 
0.390625 1.653617 0.000000 
0.651042 1.487709 0.000000 
0.651042 1.570539 0.000000 
0.651042 1.653617 0.000000 
0.130208 1.736928 0.000000 
0.130208 1.820492 0.000000 
0.130208 1.904315 0.000000 
0.390625 1.736928 0.000000 
0.390625 1.820492 0.000000 
0.390625 1.904315 0.000000 
0.651042 1.736928 0.000000 
0.651042 1.820492 0.000000 
0.651042 1.904315 0.000000 
0.130208 1.988388 0.000000 
0.130208 2.072753 0.000000 
0.130208 2.157357 0.000000 
0.390625 1.988388 0.000000 
0.390625 2.072753 0.000000 
0.390625 2.157357 0.000000 
0.651042 1.988388 0.000000 
0.651042 2.072753 0.000000 
0.651042 2.157357 0.000000 
0.130208 2.242264 0.000000 
0.130208 2.327478 0.000000 
0.130208 2.412937 0.000000 
0.390625 2.242264 0.000000 
0.390625 2.327478 0.000000 
0.390625 2.412937 0.000000 
0.651042 2.242264 0.000000 
0.651042 2.327478 0.000000 
0.651042 2.412937 0.000000 
0.130208 2.498679 0.000000 
0.130208 2.584690 0.000000 
0.130208 2.670966 0.000000 
0.390625 2.498679 0.000000 
0.390625 2.584690 0.000000 
0.390625 2.670966 0.000000 
0.651042 2.498679 0.000000 
0.651042 2.584690 0.000000 
0.651042 2.670966 0.000000 
0.130208 2.757524 0.000000 
0.130208 2.844399 0.000000 
0.130208 2.931527 0.000000 
0.390625 2.757524 0.000000 
0.390625 2.844399 0.000000 
0.390625 2.931527 0.000000 
0.651042 2.757524 0.000000 
0.651042 2.844399 0.000000 
0.651042 2.931527 0.000000 
0.130208 3.018979 0.000000 
0.130208 3.106742 0.000000 
0.130208 3.194791 0.000000 
0.390625 3.018979 0.000000 
0.390625 3.106742 0.000000 
0.390625 3.194791 0.000000 
0.651042 3.018979 0.000000 
0.651042 3.106742 0.000000 
0.651042 3.194791 0.000000 
0.130208 3.283148 0.000000 
0.130208 3.371792 0.000000 
0.130208 3.460695 0.000000 
0.390625 3.283148 0.000000 
0.390625 3.371792 0.000000 
0.390625 3.460695 0.000000 
0.651042 3.283148 0.000000 
0.651042 3.371792 0.000000 
0.651042 3.460695 0.000000 
0.130208 3.549910 0.000000 
0.130208 3.639460 0.000000 
0.130208 3.729321 0.000000 
0.390625 3.549910 0.000000 
0.390625 3.639460 0.000000 
0.390625 3.729321 0.000000 
0.651042 3.549910 0.000000 
0.651042 3.639460 0.000000 
0.651042 3.729321 0.000000 
0.130208 3.819489 0.000000 
0.130208 3.910042 0.000000 
0.130208 4.000843 0.000000 
0.390625 3.819489 0.000000 
0.390625 3.910042 0.000000 
0.390625 4.000843 0.000000 
0.651042 3.819489 0.000000 
0.651042 3.910042 0.000000 
0.651042 4.000843 0.000000 
0.130208 4.091953 0.000000 
0.130208 4.183426 0.000000 
0.130208 4.275237 0.000000 
0.390625 4.091953 0.000000 
0.390625 4.183426 0.000000 
0.390625 4.275237 0.000000 
0.651042 4.091953 0.000000 
0.651042 4.183426 0.000000 
0.651042 4.275237 0.000000 
0.130208 4.367335 0.000000 
0.130208 4.459793 0.000000 
0.130208 4.552572 0.000000 
0.390625 4.367335 0.000000 
0.390625 4.459793 0.000000 
0.390625 4.552572 0.000000 
0.651042 4.367335 0.000000 
0.651042 4.459793 0.000000 
0.651042 4.552572 0.000000 
0.130208 4.645732 0.000000 
0.130208 4.739193 0.000000 
0.130208 4.833048 0.000000 
0.390625 4.645732 0.000000 
0.390625 4.739193 0.000000 
0.390625 4.833048 0.000000 
0.651042 4.645732 0.000000 
0.651042 4.739193 0.000000 
0.651042 4.833048 0.000000 
0.130208 4.927220 0.000000 
0.130208 5.021715 0.000000 
0.130208 5.116601 0.000000 
0.390625 4.927220 0.000000 
0.390625 5.021715 0.000000 
0.390625 5.116601 0.000000 
0.651042 4.927220 0.000000 
0.651042 5.021715 0.000000 
0.651042 5.116601 0.000000 
0.130208 5.211865 0.000000 
0.130208 5.307481 0.000000 
0.130208 5.403447 0.000000 
0.390625 5.211865 0.000000 
0.390625 5.307481 0.000000 
0.390625 5.403447 0.000000 
0.651042 5.211865 0.000000 
0.651042 5.307481 0.000000 
0.651042 5.403447 0.000000 
0.130208 5.499837 0.000000 
0.130208 5.596551 0.000000 
0.130208 5.693628 0.000000 
0.390625 5.499837 0.000000 
0.390625 5.596551 0.000000 
0.390625 5.693628 0.000000 
0.651042 5.499837 0.000000 
0.651042 5.596551 0.000000 
0.651042 5.693628 0.000000 
0.130208 5.791107 0.000000 
0.130208 5.888994 0.000000 
0.130208 5.987227 0.000000 
0.390625 5.791107 0.000000 
0.390625 5.888994 0.000000 
0.390625 5.987227 0.000000 
0.651042 5.791107 0.000000 
0.651042 5.888994 0.000000 
0.651042 5.987227 0.000000 
0.130208 6.085858 0.000000 
0.130208 6.184931 0.000000 
0.130208 6.284392 0.000000 
0.390625 6.085858 0.000000 
0.390625 6.184931 0.000000 
0.390625 6.284392 0.000000 
0.651042 6.085858 0.000000 
0.651042 6.184931 0.000000 
0.651042 6.284392 0.000000 
0.130208 6.384273 0.000000 
0.130208 6.484560 0.000000 
0.130208 6.585247 0.000000 
0.390625 6.384273 0.000000 
0.390625 6.484560 0.000000 
0.390625 6.585247 0.000000 
0.651042 6.384273 0.000000 
0.651042 6.484560 0.000000 
0.651042 6.585247 0.000000 
0.130208 6.686332 0.000000 
0.130208 6.787846 0.000000 
0.130208 6.889772 0.000000 
0.390625 6.686332 0.000000 
0.390625 6.787846 0.000000 
0.390625 6.889772 0.000000 
0.651042 6.686332 0.000000 
0.651042 6.787846 0.000000 
0.651042 6.889772 0.000000 
0.130208 6.992168 0.000000 
0.130208 7.094991 0.000000 
0.130208 7.198196 0.000000 
0.390625 6.992168 0.000000 
0.390625 7.094991 0.000000 
0.390625 7.198196 0.000000 
0.651042 6.992168 0.000000 
0.651042 7.094991 0.000000 
0.651042 7.198196 0.000000 
0.130208 7.301911 0.000000 
0.130208 7.406009 0.000000 
0.130208 7.510595 0.000000 
0.390625 7.301911 0.000000 
0.390625 7.406009 0.000000 
0.390625 7.510595 0.000000 
0.651042 7.301911 0.000000 
0.651042 7.406009 0.000000 
0.651042 7.510595 0.000000 
0.130208 7.615647 0.000000 
0.130208 7.721168 0.000000 
0.130208 7.827176 0.000000 
0.390625 7.615647 0.000000 
0.390625 7.721168 0.000000 
0.390625 7.827176 0.000000 
0.651042 7.615647 0.000000 
0.651042 7.721168 0.000000 
0.651042 7.827176 0.000000 
0.130208 7.933636 0.000000 
0.130208 8.040609 0.000000 
0.130208 8.148022 0.000000 
0.390625 7.933636 0.000000 
0.390625 8.040609 0.000000 
0.390625 8.148022 0.000000 
0.651042 7.933636 0.000000 
0.651042 8.040609 0.000000 
0.651042 8.148022 0.000000 
0.130208 8.255961 0.000000 
0.130208 8.364414 0.000000 
0.130208 8.473365 0.000000 
0.390625 8.255961 0.000000 
0.390625 8.364414 0.000000 
0.390625 8.473365 0.000000 
0.651042 8.255961 0.000000 
0.651042 8.364414 0.000000 
0.651042 8.473365 0.000000 
0.130208 8.582804 0.000000 
0.130208 8.692797 0.000000 
0.130208 8.803240 0.000000 
0.390625 8.582804 0.000000 
0.390625 8.692797 0.000000 
0.390625 8.803240 0.000000 
0.651042 8.582804 0.000000 
0.651042 8.692797 0.000000 
0.651042 8.803240 0.000000 
0.130208 8.914283 0.000000 
0.130208 9.025862 0.000000 
0.130208 9.137905 0.000000 
0.390625 8.914283 0.000000 
0.390625 9.025862 0.000000 
0.390625 9.137905 0.000000 
0.651042 8.914283 0.000000 
0.651042 9.025862 0.000000 
0.651042 9.137905 0.000000 
0.130208 9.250558 0.000000 
0.130208 9.363787 0.000000 
0.130208 9.477572 0.000000 
0.390625 9.250558 0.000000 
0.390625 9.363787 0.000000 
0.390625 9.477572 0.000000 
0.651042 9.250558 0.000000 
0.651042 9.363787 0.000000 
0.651042 9.477572 0.000000 
0.130208 9.591876 0.000000 
0.130208 9.706868 0.000000 
0.130208 9.822331 0.000000 
0.390625 9.591876 0.000000 
0.390625 9.706868 0.000000 
0.390625 9.822331 0.000000 
0.651042 9.591876 0.000000 
0.651042 9.706868 0.000000 
0.651042 9.822331 0.000000 
0.130208 9.938343 0.000000 
0.130208 10.055046 0.000000 
0.130208 10.172345 0.000000 
0.390625 9.938343 0.000000 
0.390625 10.055046 0.000000 
0.390625 10.172345 0.000000 
0.651042 9.938343 0.000000 
0.651042 10.055046 0.000000 
0.651042 10.172345 0.000000 
0.130208 10.290270 0.000000 
0.130208 10.408800 0.000000 
0.130208 10.527968 0.000000 
0.390625 10.290270 0.000000 
0.390625 10.408800 0.000000 
0.390625 10.527968 0.000000 
0.651042 10.290270 0.000000 
0.651042 10.408800 0.000000 
0.651042 10.527968 0.000000 
0.130208 10.647756 0.000000 
0.130208 10.768213 0.000000 
0.130208 10.889336 0.000000 
0.390625 10.647756 0.000000 
0.390625 10.768213 0.000000 
0.390625 10.889336 0.000000 
0.651042 10.647756 0.000000 
0.651042 10.768213 0.000000 
0.651042 10.889336 0.000000 
0.130208 11.011156 0.000000 
0.130208 11.133678 0.000000 
0.130208 11.256845 0.000000 
0.390625 11.011156 0.000000 
0.390625 11.133678 0.000000 
0.390625 11.256845 0.000000 
0.651042 11.011156 0.000000 
0.651042 11.133678 0.000000 
0.651042 11.256845 0.000000 
0.130208 11.380663 0.000000 
0.130208 11.505221 0.000000 
0.130208 11.630564 0.000000 
0.390625 11.380663 0.000000 
0.390625 11.505221 0.000000 
0.390625 11.630564 0.000000 
0.651042 11.380663 0.000000 
0.651042 11.505221 0.000000 
0.651042 11.630564 0.000000 
0.130208 11.756561 0.000000 
0.130208 11.883310 0.000000 
0.130208 12.010903 0.000000 
0.390625 11.756561 0.000000 
0.390625 11.883310 0.000000 
0.390625 12.010903 0.000000 
0.651042 11.756561 0.000000 
0.651042 11.883310 0.000000 
0.651042 12.010903 0.000000 
0.130208 12.139117 0.000000 
0.130208 12.268130 0.000000 
0.130208 12.398023 0.000000 
0.390625 12.139117 0.000000 
0.390625 12.268130 0.000000 
0.390625 12.398023 0.000000 
0.651042 12.139117 0.000000 
0.651042 12.268130 0.000000 
0.651042 12.398023 0.000000 
0.130208 12.528744 0.000000 
0.130208 12.660072 0.000000 
0.130208 12.792389 0.000000 
0.390625 12.528744 0.000000 
0.390625 12.660072 0.000000 
0.390625 12.792389 0.000000 
0.651042 12.528744 0.000000 
0.651042 12.660072 0.000000 
0.651042 12.792389 0.000000 
0.130208 12.925549 0.000000 
0.130208 13.059510 0.000000 
0.130208 13.194372 0.000000 
0.390625 12.925549 0.000000 
0.390625 13.059510 0.000000 
0.390625 13.194372 0.000000 
0.651042 12.925549 0.000000 
0.651042 13.059510 0.000000 
0.651042 13.194372 0.000000 
0.130208 13.330110 0.000000 
0.130208 13.466771 0.000000 
0.130208 13.604214 0.000000 
0.390625 13.330110 0.000000 
0.390625 13.466771 0.000000 
0.390625 13.604214 0.000000 
0.651042 13.330110 0.000000 
0.651042 13.466771 0.000000 
0.651042 13.604214 0.000000 
0.130208 13.742694 0.000000 
0.130208 13.882125 0.000000 
0.130208 14.022604 0.000000 
0.390625 13.742694 0.000000 
0.390625 13.882125 0.000000 
0.390625 14.022604 0.000000 
0.651042 13.742694 0.000000 
0.651042 13.882125 0.000000 
0.651042 14.022604 0.000000 
0.130208 14.163980 0.000000 
0.130208 14.306325 0.000000 
0.130208 14.449781 0.000000 
0.390625 14.163980 0.000000 
0.390625 14.306325 0.000000 
0.390625 14.449781 0.000000 
0.651042 14.163980 0.000000 
0.651042 14.306325 0.000000 
0.651042 14.449781 0.000000 
0.130208 14.594292 0.000000 
0.130208 14.739799 0.000000 
0.130208 14.886388 0.000000 
0.390625 14.594292 0.000000 
0.390625 14.739799 0.000000 
0.390625 14.886388 0.000000 
0.651042 14.594292 0.000000 
0.651042 14.739799 0.000000 
0.651042 14.886388 0.000000 
0.130208 15.034086 0.000000 
0.130208 15.182922 0.000000 
0.130208 15.332781 0.000000 
0.390625 15.034086 0.000000 
0.390625 15.182922 0.000000 
0.390625 15.332781 0.000000 
0.651042 15.034086 0.000000 
0.651042 15.182922 0.000000 
0.651042 15.332781 0.000000 
0.130208 15.483977 0.000000 
0.130208 15.636373 0.000000 
0.130208 15.789811 0.000000 
0.390625 15.483977 0.000000 
0.390625 15.636373 0.000000 
0.390625 15.789811 0.000000 
0.651042 15.483977 0.000000 
0.651042 15.636373 0.000000 
0.651042 15.789811 0.000000 
0.130208 15.944569 0.000000 
0.130208 16.100722 0.000000 
0.130208 16.258012 0.000000 
0.390625 15.944569 0.000000 
0.390625 16.100722 0.000000 
0.390625 16.258012 0.000000 
0.651042 15.944569 0.000000 
0.651042 16.100722 0.000000 
0.651042 16.258012 0.000000 
0.130208 16.416740 0.000000 
0.130208 16.576928 0.000000 
0.130208 16.738356 0.000000 
0.390625 16.416740 0.000000 
0.390625 16.576928 0.000000 
0.390625 16.738356 0.000000 
0.651042 16.416740 0.000000 
0.651042 16.576928 0.000000 
0.651042 16.738356 0.000000 
0.130208 16.901334 0.000000 
0.130208 17.065675 0.000000 
0.130208 17.231568 0.000000 
0.390625 16.901334 0.000000 
0.390625 17.065675 0.000000 
0.390625 17.231568 0.000000 
0.651042 16.901334 0.000000 
0.651042 17.065675 0.000000 
0.651042 17.231568 0.000000 
0.130208 17.398884 0.000000 
0.130208 17.567829 0.000000 
0.130208 17.738358 0.000000 
0.390625 17.398884 0.000000 
0.390625 17.567829 0.000000 
0.390625 17.738358 0.000000 
0.651042 17.398884 0.000000 
0.651042 17.567829 0.000000 
0.651042 17.738358 0.000000 
0.130208 17.910631 0.000000 
0.130208 18.084651 0.000000 
0.130208 18.260294 0.000000 
0.390625 17.910631 0.000000 
0.390625 18.084651 0.000000 
0.390625 18.260294 0.000000 
0.651042 17.910631 0.000000 
0.651042 18.084651 0.000000 
0.651042 18.260294 0.000000 
0.130208 18.437822 0.000000 
0.130208 18.617227 0.000000 
0.130208 18.798261 0.000000 
0.390625 18.437822 0.000000 
0.390625 18.617227 0.000000 
0.390625 18.798261 0.000000 
0.651042 18.437822 0.000000 
0.651042 18.617227 0.000000 
0.651042 18.798261 0.000000 
0.130208 18.981540 0.000000 
0.130208 19.166785 0.000000 
0.130208 19.353965 0.000000 
0.390625 18.981540 0.000000 
0.390625 19.166785 0.000000 
0.390625 19.353965 0.000000 
0.651042 18.981540 0.000000 
0.651042 19.166785 0.000000 
0.651042 19.353965 0.000000 
0.130208 19.543469 0.000000 
0.130208 19.735064 0.000000 
0.130208 19.928979 0.000000 
0.390625 19.543469 0.000000 
0.390625 19.735064 0.000000 
0.390625 19.928979 0.000000 
0.651042 19.543469 0.000000 
0.651042 19.735064 0.000000 
0.651042 19.928979 0.000000 
0.130208 20.125307 0.000000 
0.130208 20.324410 0.000000 
0.130208 20.525619 0.000000 
0.390625 20.125307 0.000000 
0.390625 20.324410 0.000000 
0.390625 20.525619 0.000000 
0.651042 20.125307 0.000000 
0.651042 20.324410 0.000000 
0.651042 20.525619 0.000000 
0.130208 20.729258 0.000000 
0.130208 20.936051 0.000000 
0.130208 21.145500 0.000000 
0.390625 20.729258 0.000000 
0.390625 20.936051 0.000000 
0.390625 21.145500 0.000000 
0.651042 20.729258 0.000000 
0.651042 20.936051 0.000000 
0.651042 21.145500 0.000000 
0.130208 21.357763 0.000000 
0.130208 21.573236 0.000000 
0.130208 21.791847 0.000000 
0.390625 21.357763 0.000000 
0.390625 21.573236 0.000000 
0.390625 21.791847 0.000000 
0.651042 21.357763 0.000000 
0.651042 21.573236 0.000000 
0.651042 21.791847 0.000000 
0.130208 22.013571 0.000000 
0.130208 22.238954 0.000000 
0.130208 22.468304 0.000000 
0.390625 22.013571 0.000000 
0.390625 22.238954 0.000000 
0.390625 22.468304 0.000000 
0.651042 22.013571 0.000000 
0.651042 22.238954 0.000000 
0.651042 22.468304 0.000000 
0.130208 22.700480 0.000000 
0.130208 22.936969 0.000000 
0.130208 23.179211 0.000000 
0.390625 22.700480 0.000000 
0.390625 22.936969 0.000000 
0.390625 23.179211 0.000000 
0.651042 22.700480 0.000000 
0.651042 22.936969 0.000000 
0.651042 23.179211 0.000000 
0.130208 23.424858 0.000000 
0.130208 23.674664 0.000000 
0.130208 23.926026 0.000000 
0.390625 23.424858 0.000000 
0.390625 23.674664 0.000000 
0.390625 23.926026 0.000000 
0.651042 23.424858 0.000000 
0.651042 23.674664 0.000000 
0.651042 23.926026 0.000000 

POINT_DATA 576
SCALARS sigma_xx FLOAT 1
LOOKUP_TABLE default
0.000000
0.000000
-0.000000
0.000000
0.000000
-0.000000
0.000000
0.000000
-0.000000
0.000000
-0.000000
-0.000000
0.000000
-0.000000
-0.000000
0.000000
-0.000000
-0.000000
-0.000000
-0.000000
0.000000
-0.000000
-0.000000
-0.000000
-0.000000
-0.000000
-0.000000
-0.000000
-0.000000
-0.000000
-0.000000
-0.000000
-0.000000
-0.000000
-0.000000
-0.000000
-0.000000
-0.000000
-0.000000
-0.000000
-0.000000
-0.000000
-0.000000
-0.000000
-0.000000
-0.000000
-0.000000
-0.000000
-0.000000
-0.000000
-0.000000
-0.000000
-0.000000
-0.000000
-0.000000
-0.000000
-0.000000
-0.000000
-0.000000
-0.000000
-0.000000
-0.000000
-0.000000
-0.000000
-0.000000
-0.000000
-0.000000
-0.000000
-0.000000
-0.000000
-0.000000
-0.000000
-0.000000
-0.000000
-0.000000
-0.000000
-0.000000
0.000000
-0.000000
-0.000000
0.000000
-0.000000
-0.000000
-0.000000
-0.000000
-0.000000
-0.000000
-0.000000
-0.000000
-0.000000
-0.000000
-0.000000
-0.000000
-0.000000
-0.000000
-0.000000
-0.000000
-0.000000
-0.000000
-0.000000
-0.000000
-0.000000
-0.000000
-0.000000
-0.000000
-0.000000
-0.000000
-0.000000
-0.000000
-0.000000
-0.000000
-0.000000
-0.000000
-0.000000
-0.000000
-0.000000
-0.000000
-0.000000
-0.000000
-0.000000
-0.000000
-0.000000
-0.000000
-0.000000
-0.000000
-0.000000
-0.000000
-0.000000
-0.000000
-0.000000
0.000000
-0.000000
0.000000
0.000000
-0.000000
-0.000000
-0.000000
-0.000000
-0.000000
-0.000000
-0.000000
-0.000000
-0.000000
-0.000000
-0.000000
-0.000000
-0.000000
-0.000000
-0.000000
-0.000000
-0.000000
-0.000000
-0.000000
-0.000000
-0.000000
-0.000000
-0.000000
-0.000000
-0.000000
-0.000000
-0.000000
-0.000000
-0.000000
-0.000000
-0.000000
-0.000000
-0.000000
-0.000000
-0.000000
-0.000000
-0.000000
-0.000000
-0.000000
-0.000000
-0.000000
-0.000000
-0.000000
-0.000000
-0.000000
-0.000000
-0.000000
-0.000000
-0.000000
-0.000000
-0.000000
-0.000000
-0.000000
-0.000000
-0.000000
-0.000000
-0.000000
-0.000000
-0.000000
-0.000000
-0.000000
-0.000000
-0.000000
-0.000000
-0.000000
-0.000000
-0.000000
-0.000000
-0.000000
-0.000000
-0.000000
-0.000000
-0.000000
-0.000000
-0.000000
-0.000000
-0.000000
-0.000000
-0.000000
-0.000000
-0.000000
-0.000000
-0.000000
-0.000000
-0.000000
-0.000000
-0.000000
-0.000000
-0.000000
-0.000000
-0.000000
-0.000000
-0.000000
-0.000000
0.000000
-0.000000
-0.000000
0.000000
-0.000000
-0.000000
-0.000000
-0.000000
-0.000000
-0.000000
-0.000000
-0.000000
-0.000000
-0.000000
-0.000000
-0.000000
-0.000000
-0.000000
-0.000000
0.000000
0.000000
-0.000000
-0.000000
-0.000000
-0.000000
-0.000000
-0.000000
-0.000000
-0.000000
-0.000000
-0.000000
-0.000000
-0.000000
-0.000000
-0.000000
-0.000000
-0.000000
-0.000000
-0.000000
-0.000000
-0.000000
-0.000000
-0.000000
-0.000000
-0.000000
-0.000000
-0.000000
-0.000000
-0.000000
-0.000000
-0.000000
-0.000000
-0.000000
-0.000000
-0.000000
-0.000000
-0.000000
-0.000000
-0.000000
-0.000000
-0.000000
-0.000000
-0.000000
0.000000
-0.000000
-0.000000
-0.000000
-0.000000
-0.000000
-0.000000
-0.000000
-0.000000
-0.000000
-0.000000
-0.000000
-0.000000
-0.000000
-0.000000
-0.000000
-0.000000
-0.000000
-0.000000
-0.000000
-0.000000
-0.000000
-0.000000
-0.000000
-0.000000
-0.000000
-0.000000
-0.000000
-0.000000
0.000000
-0.000000
-0.000000
0.000000
-0.000000
-0.000000
-0.000000
-0.000000
-0.000000
-0.000000
-0.000000
-0.000000
-0.000000
-0.000000
-0.000000
-0.000000
-0.000000
-0.000000
-0.000000
-0.000000
-0.000000
-0.000000
-0.000000
-0.000000
-0.000000
-0.000000
-0.000000
-0.000000
-0.000000
-0.000000
-0.000000
-0.000000
-0.000000
-0.000000
-0.000000
-0.000000
-0.000000
-0.000000
-0.000000
-0.000000
-0.000000
0.000000
-0.000000
-0.000000
0.000000
-0.000000
-0.000000
-0.000000
-0.000000
-0.000000
-0.000000
-0.000000
-0.000000
-0.000000
-0.000000
-0.000000
-0.000000
-0.000000
-0.000000
-0.000000
-0.000000
-0.000000
-0.000000
-0.000000
-0.000000
-0.000000
-0.000000
-0.000000
-0.000000
-0.000000
-0.000000
-0.000000
-0.000000
-0.000000
-0.000000
-0.000000
-0.000000
-0.000000
-0.000000
-0.000000
-0.000000
-0.000000
-0.000000
-0.000000
-0.000000
-0.000000
-0.000000
-0.000000
-0.000000
-0.000000
-0.000000
-0.000000
-0.000000
-0.000000
-0.000000
-0.000000
-0.000000
-0.000000
-0.000000
-0.000000
-0.000000
-0.000000
-0.000000
-0.000000
-0.000000
-0.000000
-0.000000
-0.000000
-0.000000
-0.000000
-0.000000
-0.000000
-0.000000
-0.000000
-0.000000
-0.000000
-0.000000
-0.000000
-0.000000
-0.000000
-0.000000
-0.000000
-0.000000
-0.000000
-0.000000
-0.000000
-0.000000
-0.000000
-0.000000
-0.000000
-0.000000
-0.000000
-0.000000
-0.000000
-0.000000
-0.000000
-0.000000
-0.000000
-0.000000
0.000000
-0.000000
-0.000000
-0.000000
-0.000000
-0.000000
-0.000000
-0.000000
-0.000000
-0.000000
-0.000000
-0.000000
-0.000000
-0.000000
-0.000000
-0.000000
-0.000000
-0.000000
-0.000000
-0.000000
-0.000000
-0.000000
-0.000000
-0.000000
-0.000000
-0.000000
-0.000000
-0.000000
-0.000000
-0.000000
-0.000000
0.000000
-0.000000
-0.000000
0.000000
-0.000000
-0.000000
-0.000000
-0.000000
-0.000000
-0.000000
-0.000000
-0.000000
-0.000000
-0.000000
-0.000000
-0.000000
-0.000000
-0.000000
-0.000000
-0.000000
-0.000000
-0.000000
-0.000000
-0.000000
0.000000
-0.000000
-0.000000
-0.000000
-0.000000
-0.000000
-0.000000
-0.000000
-0.000000
-0.000000
-0.000000
-0.000000
-0.000000
-0.000000
-0.000000
-0.000000
-0.000000
-0.000000
-0.000000
-0.000000
-0.000000
-0.000000
-0.000000
-0.000000
-0.000000
-0.000000
-0.000000
-0.000000
-0.000000
0.000000
-0.000000
-0.000000
-0.000000
-0.000000
-0.000000
-0.000000
-0.000000
-0.000000
-0.000000
-0.000000
-0.000000
-0.000000
-0.000000
0.000000
-0.000000
-0.000000
-0.000000
-0.000000
-0.000000
-0.000000
-0.000000
-0.000000
-0.000000
-0.000000
-0.000000
-0.000000
-0.000000
-0.000000
-0.000000
-0.000000
-0.000000
-0.000000

SCALARS sigma_yy FLOAT 1
LOOKUP_TABLE default
-39573.541656
-39573.541656
-39573.541656
-39573.541656
-39573.541656
-39573.541656
-39573.541656
-39573.541656
-39573.541656
-39375.945407
-39140.779874
-38965.173279
-39375.945407
-39140.779874
-38965.173279
-39375.945407
-39140.779874
-38965.173279
-38699.510771
-38458.805523
-38244.232528
-38699.510771
-38458.805523
-38244.232528
-38699.510771
-38458.805523
-38244.232528
-37973.909130
-37771.544009
-37619.198141
-37973.909130
-37771.544009
-37619.198141
-37973.909130
-37771.544009
-37619.198141
-37388.954811
-37190.488062
-37015.203448
-37388.954811
-37190.488062
-37015.203448
-37388.954811
-37190.488062
-37015.203448
-36780.821891
-36565.524782
-36377.090924
-36780.821891
-36565.524782
-36377.090924
-36780.821891
-36565.524782
-36377.090924
-36112.433715
-35914.517333
-35735.744915
-36112.433715
-35914.517333
-35735.744915
-36112.433715
-35914.517333
-35735.744915
-35504.182618
-35326.611071
-35128.356861
-35504.182618
-35326.611071
-35128.356861
-35504.182618
-35326.611071
-35128.356861
-34897.319278
-34698.692062
-34494.305260
-34897.319278
-34698.692062
-34494.305260
-34897.319278
-34698.692062
-34494.305260
-34255.725366
-34034.834798
-33865.660330
-34255.725366
-34034.834798
-33865.660330
-34255.725366
-34034.834798
-33865.660330
-33622.835725
-33448.474060
-33258.468151
-33622.835725
-33448.474060
-33258.468151
-33622.835725
-33448.474060
-33258.468151
-33002.578397
-32826.390128
-32624.128286
-33002.578397
-32826.390128
-32624.128286
-33002.578397
-32826.390128
-32624.128286
-32367.713298
-32164.882886
-31991.962909
-32367.713298
-32164.882886
-31991.962909
-32367.713298
-32164.882886
-31991.962909
-31722.601941
-31589.912484
-31386.908372
-31722.601941
-31589.912484
-31386.908372
-31722.601941
-31589.912484
-31386.908372
-31140.456996
-30933.878483
-30752.695086
-31140.456996
-30933.878483
-30752.695086
-31140.456996
-30933.878483
-30752.695086
-30481.696140
-30318.605821
-30114.730579
-30481.696140
-30318.605821
-30114.730579
-30481.696140
-30318.605821
-30114.730579
-29900.759984
-29665.606152
-29494.983725
-29900.759984
-29665.606152
-29494.983725
-29900.759984
-29665.606152
-29494.983725
-29286.202455
-29046.971962
-28866.691748
-29286.202455
-29046.971962
-28866.691748
-29286.202455
-29046.971962
-28866.691748
-28636.711634
-28432.501838
-28229.109020
-28636.711634
-28432.501838
-28229.109020
-28636.711634
-28432.501838
-28229.109020
-28030.820805
-27823.304697
-27614.650573
-28030.820805
-27823.304697
-27614.650573
-28030.820805
-27823.304697
-27614.650573
-27364.891499
-27197.106922
-26979.208045
-27364.891499
-27197.106922
-26979.208045
-27364.891499
-27197.106922
-26979.208045
-26741.250897
-26583.190826
-26379.472297
-26741.250897
-26583.190826
-26379.472297
-26741.250897
-26583.190826
-26379.472297
-26117.256846
-25953.493772
-25741.548734
-26117.256846
-25953.493772
-25741.548734
-26117.256846
-25953.493772
-25741.548734
-25507.762853
-25303.815038
-25099.799485
-25507.762853
-25303.815038
-25099.799485
-25507.762853
-25303.815038
-25099.799485
-24881.039693
-24661.692000
-24497.019817
-24881.039693
-24661.692000
-24497.019817
-24881.039693
-24661.692000
-24497.019817
-24265.426531
-24069.455420
-23861.328722
-24265.426531
-24069.455420
-23861.328722
-24265.426531
-24069.455420
-23861.328722
-23625.803807
-23448.564236
-23235.912202
-23625.803807
-23448.564236
-23235.912202
-23625.803807
-23448.564236
-23235.912202
-23024.256598
-22823.217661
-22632.805073
-23024.256598
-22823.217661
-22632.805073
-23024.256598
-22823.217661
-22632.805073
-22372.302782
-22199.143107
-21995.260772
-22372.302782
-22199.143107
-21995.260772
-22372.302782
-22199.143107
-21995.260772
-21748.550094
-21574.240804
-21361.197716
-21748.550094
-21574.240804
-21361.197716
-21748.550094
-21574.240804
-21361.197716
-21130.815001
-20926.652106
-20745.986397
-21130.815001
-20926.652106
-20745.986397
-21130.815001
-20926.652106
-20745.986397
-20512.230642
-20311.076812
-20122.163407
-20512.230642
-20311.076812
-20122.163407
-20512.230642
-20311.076812
-20122.163407
-19860.124403
-19703.760607
-19505.717144
-19860.124403
-19703.760607
-19505.717144
-19860.124403
-19703.760607
-19505.717144
-19232.816821
-19071.458261
-18855.194222
-19232.816821
-19071.458261
-18855.194222
-19232.816821
-19071.458261
-18855.194222
-18634.927892
-18414.452011
-18262.140576
-18634.927892
-18414.452011
-18262.140576
-18634.927892
-18414.452011
-18262.140576
-18026.054048
-17798.355399
-17619.306303
-18026.054048
-17798.355399
-17619.306303
-18026.054048
-17798.355399
-17619.306303
-17391.420785
-17184.744225
-16983.768432
-17391.420785
-17184.744225
-16983.768432
-17391.420785
-17184.744225
-16983.768432
-16784.132546
-16540.973372
-16374.357424
-16784.132546
-16540.973372
-16374.357424
-16784.132546
-16540.973372
-16374.357424
-16118.167233
-15925.189258
-15741.456409
-16118.167233
-15925.189258
-15741.456409
-16118.167233
-15925.189258
-15741.456409
-15524.666465
-15311.503021
-15095.870349
-15524.666465
-15311.503021
-15095.870349
-15524.666465
-15311.503021
-15095.870349
-14900.013318
-14674.063415
-14486.496612
-14900.013318
-14674.063415
-14486.496612
-14900.013318
-14674.063415
-14486.496612
-14275.856371
-14072.441144
-13830.634897
-14275.856371
-14072.441144
-13830.634897
-14275.856371
-14072.441144
-13830.634897
-13647.460048
-13455.487452
-13222.915043
-13647.460048
-13455.487452
-13222.915043
-13647.460048
-13455.487452
-13222.915043
-13021.399976
-12811.549289
-12608.425826
-13021.399976
-12811.549289
-12608.425826
-13021.399976
-12811.549289
-12608.425826
-12383.454352
-12208.458564
-11989.380208
-12383.454352
-12208.458564
-11989.380208
-12383.454352
-12208.458564
-11989.380208
-11770.783162
-11558.995450
-11344.353272
-11770.783162
-11558.995450
-11344.353272
-11770.783162
-11558.995450
-11344.353272
-11151.137006
-10936.998854
-10726.719757
-11151.137006
-10936.998854
-10726.719757
-11151.137006
-10936.998854
-10726.719757
-10505.619939
-10315.819928
-10104.393463
-10505.619939
-10315.819928
-10104.393463
-10505.619939
-10315.819928
-10104.393463
-9895.286679
-9692.023875
-9496.445750
-9895.286679
-9692.023875
-9496.445750
-9895.286679
-9692.023875
-9496.445750
-9241.088472
-9074.333254
-8870.362154
-9241.088472
-9074.333254
-8870.362154
-9241.088472
-9074.333254
-8870.362154
-8644.130998
-8428.380122
-8244.740407
-8644.130998
-8428.380122
-8244.740407
-8644.130998
-8428.380122
-8244.740407
-8008.828181
-7808.569150
-7603.308248
-8008.828181
-7808.569150
-7603.308248
-8008.828181
-7808.569150
-7603.308248
-7387.044173
-7184.261542
-6992.815691
-7387.044173
-7184.261542
-6992.815691
-7387.044173
-7184.261542
-6992.815691
-6769.148536
-6580.187176
-6344.065789
-6769.148536
-6580.187176
-6344.065789
-6769.148536
-6580.187176
-6344.065789
-6143.124324
-5936.830404
-5730.303976
-6143.124324
-5936.830404
-5730.303976
-6143.124324
-5936.830404
-5730.303976
-5513.017272
-5322.792458
-5109.515700
-5513.017272
-5322.792458
-5109.515700
-5513.017272
-5322.792458
-5109.515700
-4893.959508
-4681.034146
-4496.582869
-4893.959508
-4681.034146
-4496.582869
-4893.959508
-4681.034146
-4496.582869
-4268.365405
-4056.238279
-3859.334799
-4268.365405
-4056.238279
-3859.334799
-4268.365405
-4056.238279
-3859.334799
-3627.657557
-3418.791450
-3247.606677
-3627.657557
-3418.791450
-3247.606677
-3627.657557
-3418.791450
-3247.606677
-3031.942375
-2786.177993
-2628.368936
-3031.942375
-2786.177993
-2628.368936
-3031.942375
-2786.177993
-2628.368936
-2398.847059
-2176.619868
-1996.431039
-2398.847059
-2176.619868
-1996.431039
-2398.847059
-2176.619868
-1996.431039
-1780.994294
-1543.467776
-1370.338006
-1780.994294
-1543.467776
-1370.338006
-1780.994294