# vtk DataFile Version 2.0
MATLAB generated vtk file, WMC
ASCII
DATASET UNSTRUCTURED_GRID
<<<<<<< Updated upstream
POINTS 2048 double
0.024414 0.016344 0.000000 
0.024414 0.049032 0.000000 
0.073242 0.016344 0.000000 
0.073242 0.049032 0.000000 
0.024414 0.081726 0.000000 
0.024414 0.114435 0.000000 
0.073242 0.081726 0.000000 
0.073242 0.114435 0.000000 
0.024414 0.147149 0.000000 
0.024414 0.179874 0.000000 
0.073242 0.147149 0.000000 
0.073242 0.179874 0.000000 
0.024414 0.212609 0.000000 
0.024414 0.245352 0.000000 
0.073242 0.212609 0.000000 
0.073242 0.245352 0.000000 
0.024414 0.278105 0.000000 
0.024414 0.310867 0.000000 
0.073242 0.278105 0.000000 
0.073242 0.310867 0.000000 
0.024414 0.343638 0.000000 
0.024414 0.376418 0.000000 
0.073242 0.343638 0.000000 
0.073242 0.376418 0.000000 
0.024414 0.409208 0.000000 
0.024414 0.442007 0.000000 
0.073242 0.409208 0.000000 
0.073242 0.442007 0.000000 
0.024414 0.474816 0.000000 
0.024414 0.507633 0.000000 
0.073242 0.474816 0.000000 
0.073242 0.507633 0.000000 
0.024414 0.540459 0.000000 
0.024414 0.573295 0.000000 
0.073242 0.540459 0.000000 
0.073242 0.573295 0.000000 
0.024414 0.606141 0.000000 
0.024414 0.638995 0.000000 
0.073242 0.606141 0.000000 
0.073242 0.638995 0.000000 
0.024414 0.671858 0.000000 
0.024414 0.704730 0.000000 
0.073242 0.671858 0.000000 
0.073242 0.704730 0.000000 
0.024414 0.737612 0.000000 
0.024414 0.770504 0.000000 
0.073242 0.737612 0.000000 
0.073242 0.770504 0.000000 
0.024414 0.803405 0.000000 
0.024414 0.836314 0.000000 
0.073242 0.803405 0.000000 
0.073242 0.836314 0.000000 
0.024414 0.869234 0.000000 
0.024414 0.902164 0.000000 
0.073242 0.869234 0.000000 
0.073242 0.902164 0.000000 
0.024414 0.935101 0.000000 
0.024414 0.968049 0.000000 
0.073242 0.935101 0.000000 
0.073242 0.968049 0.000000 
0.024414 1.001005 0.000000 
0.024414 1.033972 0.000000 
0.073242 1.001005 0.000000 
0.073242 1.033972 0.000000 
0.024414 1.066947 0.000000 
0.024414 1.099933 0.000000 
0.073242 1.066947 0.000000 
0.073242 1.099933 0.000000 
0.024414 1.132927 0.000000 
0.024414 1.165930 0.000000 
0.073242 1.132927 0.000000 
0.073242 1.165930 0.000000 
0.024414 1.198944 0.000000 
0.024414 1.231964 0.000000 
0.073242 1.198944 0.000000 
0.073242 1.231964 0.000000 
0.024414 1.264998 0.000000 
0.024414 1.298039 0.000000 
0.073242 1.264998 0.000000 
0.073242 1.298039 0.000000 
0.024414 1.331089 0.000000 
0.024414 1.364150 0.000000 
0.073242 1.331089 0.000000 
0.073242 1.364150 0.000000 
0.024414 1.397219 0.000000 
0.024414 1.430299 0.000000 
0.073242 1.397219 0.000000 
0.073242 1.430299 0.000000 
0.024414 1.463387 0.000000 
0.024414 1.496484 0.000000 
0.073242 1.463387 0.000000 
0.073242 1.496484 0.000000 
0.024414 1.529595 0.000000 
0.024414 1.562711 0.000000 
0.073242 1.529595 0.000000 
0.073242 1.562711 0.000000 
0.024414 1.595838 0.000000 
0.024414 1.628973 0.000000 
0.073242 1.595838 0.000000 
0.073242 1.628973 0.000000 
0.024414 1.662116 0.000000 
0.024414 1.695273 0.000000 
0.073242 1.662116 0.000000 
0.073242 1.695273 0.000000 
0.024414 1.728437 0.000000 
0.024414 1.761610 0.000000 
0.073242 1.728437 0.000000 
0.073242 1.761610 0.000000 
0.024414 1.794793 0.000000 
0.024414 1.827987 0.000000 
0.073242 1.794793 0.000000 
0.073242 1.827987 0.000000 
0.024414 1.861188 0.000000 
0.024414 1.894402 0.000000 
0.073242 1.861188 0.000000 
0.073242 1.894402 0.000000 
0.024414 1.927623 0.000000 
0.024414 1.960854 0.000000 
0.073242 1.927623 0.000000 
0.073242 1.960854 0.000000 
0.024414 1.994095 0.000000 
0.024414 2.027345 0.000000 
0.073242 1.994095 0.000000 
0.073242 2.027345 0.000000 
0.024414 2.060607 0.000000 
0.024414 2.093875 0.000000 
0.073242 2.060607 0.000000 
0.073242 2.093875 0.000000 
0.024414 2.127154 0.000000 
0.024414 2.160441 0.000000 
0.073242 2.127154 0.000000 
0.073242 2.160441 0.000000 
0.024414 2.193741 0.000000 
0.024414 2.227049 0.000000 
0.073242 2.193741 0.000000 
0.073242 2.227049 0.000000 
0.024414 2.260367 0.000000 
0.024414 2.293694 0.000000 
0.073242 2.260367 0.000000 
0.073242 2.293694 0.000000 
0.024414 2.327030 0.000000 
0.024414 2.360378 0.000000 
0.073242 2.327030 0.000000 
0.073242 2.360378 0.000000 
0.024414 2.393734 0.000000 
0.024414 2.427099 0.000000 
0.073242 2.393734 0.000000 
0.073242 2.427099 0.000000 
0.024414 2.460476 0.000000 
0.024414 2.493861 0.000000 
0.073242 2.460476 0.000000 
0.073242 2.493861 0.000000 
0.024414 2.527256 0.000000 
0.024414 2.560659 0.000000 
0.073242 2.527256 0.000000 
0.073242 2.560659 0.000000 
0.024414 2.594073 0.000000 
0.024414 2.627499 0.000000 
0.073242 2.594073 0.000000 
0.073242 2.627499 0.000000 
0.024414 2.660931 0.000000 
0.024414 2.694376 0.000000 
0.073242 2.660931 0.000000 
0.073242 2.694376 0.000000 
0.024414 2.727828 0.000000 
0.024414 2.761292 0.000000 
0.073242 2.727828 0.000000 
0.073242 2.761292 0.000000 
0.024414 2.794764 0.000000 
0.024414 2.828246 0.000000 
0.073242 2.794764 0.000000 
0.073242 2.828246 0.000000 
0.024414 2.861740 0.000000 
0.024414 2.895242 0.000000 
0.073242 2.861740 0.000000 
0.073242 2.895242 0.000000 
0.024414 2.928756 0.000000 
0.024414 2.962277 0.000000 
0.073242 2.928756 0.000000 
0.073242 2.962277 0.000000 
0.024414 2.995808 0.000000 
0.024414 3.029349 0.000000 
0.073242 2.995808 0.000000 
0.073242 3.029349 0.000000 
0.024414 3.062899 0.000000 
0.024414 3.096460 0.000000 
0.073242 3.062899 0.000000 
0.073242 3.096460 0.000000 
0.024414 3.130032 0.000000 
0.024414 3.163611 0.000000 
0.073242 3.130032 0.000000 
0.073242 3.163611 0.000000 
0.024414 3.197203 0.000000 
0.024414 3.230804 0.000000 
0.073242 3.197203 0.000000 
0.073242 3.230804 0.000000 
0.024414 3.264413 0.000000 
0.024414 3.298035 0.000000 
0.073242 3.264413 0.000000 
0.073242 3.298035 0.000000 
0.024414 3.331663 0.000000 
0.024414 3.365304 0.000000 
0.073242 3.331663 0.000000 
0.073242 3.365304 0.000000 
0.024414 3.398954 0.000000 
0.024414 3.432612 0.000000 
0.073242 3.398954 0.000000 
0.073242 3.432612 0.000000 
0.024414 3.466282 0.000000 
0.024414 3.499961 0.000000 
0.073242 3.466282 0.000000 
0.073242 3.499961 0.000000 
0.024414 3.533650 0.000000 
0.024414 3.567351 0.000000 
0.073242 3.533650 0.000000 
0.073242 3.567351 0.000000 
0.024414 3.601060 0.000000 
0.024414 3.634778 0.000000 
0.073242 3.601060 0.000000 
0.073242 3.634778 0.000000 
0.024414 3.668508 0.000000 
0.024414 3.702247 0.000000 
0.073242 3.668508 0.000000 
0.073242 3.702247 0.000000 
0.024414 3.735997 0.000000 
0.024414 3.769756 0.000000 
0.073242 3.735997 0.000000 
0.073242 3.769756 0.000000 
0.024414 3.803525 0.000000 
0.024414 3.837303 0.000000 
0.073242 3.803525 0.000000 
0.073242 3.837303 0.000000 
0.024414 3.871094 0.000000 
0.024414 3.904891 0.000000 
0.073242 3.871094 0.000000 
0.073242 3.904891 0.000000 
0.024414 3.938702 0.000000 
0.024414 3.972520 0.000000 
0.073242 3.938702 0.000000 
0.073242 3.972520 0.000000 
0.024414 4.006350 0.000000 
0.024414 4.040191 0.000000 
0.073242 4.006350 0.000000 
0.073242 4.040191 0.000000 
0.024414 4.074038 0.000000 
0.024414 4.107898 0.000000 
0.073242 4.074038 0.000000 
0.073242 4.107898 0.000000 
0.024414 4.141767 0.000000 
0.024414 4.175648 0.000000 
0.073242 4.141767 0.000000 
0.073242 4.175648 0.000000 
0.024414 4.209536 0.000000 
0.024414 4.243436 0.000000 
0.073242 4.209536 0.000000 
0.073242 4.243436 0.000000 
0.024414 4.277345 0.000000 
0.024414 4.311267 0.000000 
0.073242 4.277345 0.000000 
0.073242 4.311267 0.000000 
0.024414 4.345196 0.000000 
0.024414 4.379136 0.000000 
0.073242 4.345196 0.000000 
0.073242 4.379136 0.000000 
0.024414 4.413086 0.000000 
0.024414 4.447048 0.000000 
0.073242 4.413086 0.000000 
0.073242 4.447048 0.000000 
0.024414 4.481019 0.000000 
0.024414 4.515000 0.000000 
0.073242 4.481019 0.000000 
0.073242 4.515000 0.000000 
0.024414 4.548991 0.000000 
0.024414 4.582991 0.000000 
0.073242 4.548991 0.000000 
0.073242 4.582991 0.000000 
0.024414 4.617003 0.000000 
0.024414 4.651024 0.000000 
0.073242 4.617003 0.000000 
0.073242 4.651024 0.000000 
0.024414 4.685056 0.000000 
0.024414 4.719099 0.000000 
0.073242 4.685056 0.000000 
0.073242 4.719099 0.000000 
0.024414 4.753151 0.000000 
0.024414 4.787215 0.000000 
0.073242 4.753151 0.000000 
0.073242 4.787215 0.000000 
0.024414 4.821288 0.000000 
0.024414 4.855369 0.000000 
0.073242 4.821288 0.000000 
0.073242 4.855369 0.000000 
0.024414 4.889464 0.000000 
0.024414 4.923566 0.000000 
0.073242 4.889464 0.000000 
0.073242 4.923566 0.000000 
0.024414 4.957682 0.000000 
0.024414 4.991806 0.000000 
0.073242 4.957682 0.000000 
0.073242 4.991806 0.000000 
0.024414 5.025937 0.000000 
0.024414 5.060083 0.000000 
0.073242 5.025937 0.000000 
0.073242 5.060083 0.000000 
0.024414 5.094236 0.000000 
0.024414 5.128403 0.000000 
0.073242 5.094236 0.000000 
0.073242 5.128403 0.000000 
0.024414 5.162579 0.000000 
0.024414 5.196767 0.000000 
0.073242 5.162579 0.000000 
0.073242 5.196767 0.000000 
0.024414 5.230962 0.000000 
0.024414 5.265169 0.000000 
0.073242 5.230962 0.000000 
0.073242 5.265169 0.000000 
0.024414 5.299385 0.000000 
0.024414 5.333612 0.000000 
0.073242 5.299385 0.000000 
0.073242 5.333612 0.000000 
0.024414 5.367851 0.000000 
0.024414 5.402097 0.000000 
0.073242 5.367851 0.000000 
0.073242 5.402097 0.000000 
0.024414 5.436358 0.000000 
0.024414 5.470627 0.000000 
0.073242 5.436358 0.000000 
0.073242 5.470627 0.000000 
0.024414 5.504906 0.000000 
0.024414 5.539196 0.000000 
0.073242 5.504906 0.000000 
0.073242 5.539196 0.000000 
0.024414 5.573495 0.000000 
0.024414 5.607806 0.000000 
0.073242 5.573495 0.000000 
0.073242 5.607806 0.000000 
0.024414 5.642128 0.000000 
0.024414 5.676458 0.000000 
0.073242 5.642128 0.000000 
0.073242 5.676458 0.000000 
0.024414 5.710800 0.000000 
0.024414 5.745152 0.000000 
0.073242 5.710800 0.000000 
0.073242 5.745152 0.000000 
0.024414 5.779516 0.000000 
0.024414 5.813891 0.000000 
0.073242 5.779516 0.000000 
0.073242 5.813891 0.000000 
0.024414 5.848273 0.000000 
0.024414 5.882668 0.000000 
0.073242 5.848273 0.000000 
0.073242 5.882668 0.000000 
[...]
POINT_DATA 2048
=======
POINTS 288 double
0.520833 0.354982 0.000000 
0.520833 1.064946 0.000000 
0.520833 1.774909 0.000000 
0.520833 2.484873 0.000000 
0.520833 3.194837 0.000000 
0.520833 3.904801 0.000000 
1.562500 0.354982 0.000000 
1.562500 1.064946 0.000000 
1.562500 1.774909 0.000000 
1.562500 2.484873 0.000000 
1.562500 3.194837 0.000000 
1.562500 3.904801 0.000000 
2.604167 0.354982 0.000000 
2.604167 1.064946 0.000000 
2.604167 1.774909 0.000000 
2.604167 2.484873 0.000000 
2.604167 3.194837 0.000000 
2.604167 3.904801 0.000000 
3.645833 0.354982 0.000000 
3.645833 1.064946 0.000000 
3.645833 1.774909 0.000000 
3.645833 2.484873 0.000000 
3.645833 3.194837 0.000000 
3.645833 3.904801 0.000000 
4.687500 0.354982 0.000000 
4.687500 1.064946 0.000000 
4.687500 1.774909 0.000000 
4.687500 2.484873 0.000000 
4.687500 3.194837 0.000000 
4.687500 3.904801 0.000000 
5.729167 0.354982 0.000000 
5.729167 1.064946 0.000000 
5.729167 1.774909 0.000000 
5.729167 2.484873 0.000000 
5.729167 3.194837 0.000000 
5.729167 3.904801 0.000000 
0.520833 4.619323 0.000000 
0.520833 5.345954 0.000000 
0.520833 6.083755 0.000000 
0.520833 6.827273 0.000000 
0.520833 7.571037 0.000000 
0.520833 8.314800 0.000000 
1.562500 4.619323 0.000000 
1.562500 5.345954 0.000000 
1.562500 6.083755 0.000000 
1.562500 6.827273 0.000000 
1.562500 7.571037 0.000000 
1.562500 8.314800 0.000000 
2.604167 4.619323 0.000000 
2.604167 5.345954 0.000000 
2.604167 6.083755 0.000000 
2.604167 6.827273 0.000000 
2.604167 7.571037 0.000000 
2.604167 8.314800 0.000000 
3.645833 4.619323 0.000000 
3.645833 5.345954 0.000000 
3.645833 6.083755 0.000000 
3.645833 6.827273 0.000000 
3.645833 7.571037 0.000000 
3.645833 8.314800 0.000000 
4.687500 4.619323 0.000000 
4.687500 5.345954 0.000000 
4.687500 6.083755 0.000000 
4.687500 6.827273 0.000000 
4.687500 7.571037 0.000000 
4.687500 8.314800 0.000000 
5.729167 4.619323 0.000000 
5.729167 5.345954 0.000000 
5.729167 6.083755 0.000000 
5.729167 6.827273 0.000000 
5.729167 7.571037 0.000000 
5.729167 8.314800 0.000000 
0.520833 9.062636 0.000000 
0.520833 9.817851 0.000000 
0.520833 10.580286 0.000000 
0.520833 11.349865 0.000000 
0.520833 12.126348 0.000000 
0.520833 12.906924 0.000000 
1.562500 9.062636 0.000000 
1.562500 9.817851 0.000000 
1.562500 10.580286 0.000000 
1.562500 11.349865 0.000000 
1.562500 12.126348 0.000000 
1.562500 12.906924 0.000000 
2.604167 9.062636 0.000000 
2.604167 9.817851 0.000000 
2.604167 10.580286 0.000000 
2.604167 11.349865 0.000000 
2.604167 12.126348 0.000000 
2.604167 12.906924 0.000000 
3.645833 9.062636 0.000000 
3.645833 9.817851 0.000000 
3.645833 10.580286 0.000000 
3.645833 11.349865 0.000000 
3.645833 12.126348 0.000000 
3.645833 12.906924 0.000000 
4.687500 9.062636 0.000000 
4.687500 9.817851 0.000000 
4.687500 10.580286 0.000000 
4.687500 11.349865 0.000000 
4.687500 12.126348 0.000000 
4.687500 12.906924 0.000000 
5.729167 9.062636 0.000000 
5.729167 9.817851 0.000000 
5.729167 10.580286 0.000000 
5.729167 11.349865 0.000000 
5.729167 12.126348 0.000000 
5.729167 12.906924 0.000000 
0.520833 13.692048 0.000000 
0.520833 14.483096 0.000000 
0.520833 15.280497 0.000000 
0.520833 16.083684 0.000000 
0.520833 16.892458 0.000000 
0.520833 17.706955 0.000000 
1.562500 13.692048 0.000000 
1.562500 14.483096 0.000000 
1.562500 15.280497 0.000000 
1.562500 16.083684 0.000000 
1.562500 16.892458 0.000000 
1.562500 17.706955 0.000000 
2.604167 13.692048 0.000000 
2.604167 14.483096 0.000000 
2.604167 15.280497 0.000000 
2.604167 16.083684 0.000000 
2.604167 16.892458 0.000000 
2.604167 17.706955 0.000000 
3.645833 13.692048 0.000000 
3.645833 14.483096 0.000000 
3.645833 15.280497 0.000000 
3.645833 16.083684 0.000000 
3.645833 16.892458 0.000000 
3.645833 17.706955 0.000000 
4.687500 13.692048 0.000000 
4.687500 14.483096 0.000000 
4.687500 15.280497 0.000000 
4.687500 16.083684 0.000000 
4.687500 16.892458 0.000000 
4.687500 17.706955 0.000000 
5.729167 13.692048 0.000000 
5.729167 14.483096 0.000000 
5.729167 15.280497 0.000000 
5.729167 16.083684 0.000000 
5.729167 16.892458 0.000000 
5.729167 17.706955 0.000000 
0.520833 18.531218 0.000000 
0.520833 19.362219 0.000000 
0.520833 20.199439 0.000000 
0.520833 21.041119 0.000000 
0.520833 21.888489 0.000000 
0.520833 22.741855 0.000000 
1.562500 18.531218 0.000000 
1.562500 19.362219 0.000000 
1.562500 20.199439 0.000000 
1.562500 21.041119 0.000000 
1.562500 21.888489 0.000000 
1.562500 22.741855 0.000000 
2.604167 18.531218 0.000000 
2.604167 19.362219 0.000000 
2.604167 20.199439 0.000000 
2.604167 21.041119 0.000000 
2.604167 21.888489 0.000000 
2.604167 22.741855 0.000000 
3.645833 18.531218 0.000000 
3.645833 19.362219 0.000000 
3.645833 20.199439 0.000000 
3.645833 21.041119 0.000000 
3.645833 21.888489 0.000000 
3.645833 22.741855 0.000000 
4.687500 18.531218 0.000000 
4.687500 19.362219 0.000000 
4.687500 20.199439 0.000000 
4.687500 21.041119 0.000000 
4.687500 21.888489 0.000000 
4.687500 22.741855 0.000000 
5.729167 18.531218 0.000000 
5.729167 19.362219 0.000000 
5.729167 20.199439 0.000000 
5.729167 21.041119 0.000000 
5.729167 21.888489 0.000000 
5.729167 22.741855 0.000000 
0.520833 23.605231 0.000000 
0.520833 24.479456 0.000000 
0.520833 25.362761 0.000000 
0.520833 26.250665 0.000000 
0.520833 27.145597 0.000000 
0.520833 28.045278 0.000000 
1.562500 23.605231 0.000000 
1.562500 24.479456 0.000000 
1.562500 25.362761 0.000000 
1.562500 26.250665 0.000000 
1.562500 27.145597 0.000000 
1.562500 28.045278 0.000000 
2.604167 23.605231 0.000000 
2.604167 24.479456 0.000000 
2.604167 25.362761 0.000000 
2.604167 26.250665 0.000000 
2.604167 27.145597 0.000000 
2.604167 28.045278 0.000000 
3.645833 23.605231 0.000000 
3.645833 24.479456 0.000000 
3.645833 25.362761 0.000000 
3.645833 26.250665 0.000000 
3.645833 27.145597 0.000000 
3.645833 28.045278 0.000000 
4.687500 23.605231 0.000000 
4.687500 24.479456 0.000000 
4.687500 25.362761 0.000000 
4.687500 26.250665 0.000000 
4.687500 27.145597 0.000000 
4.687500 28.045278 0.000000 
5.729167 23.605231 0.000000 
5.729167 24.479456 0.000000 
5.729167 25.362761 0.000000 
5.729167 26.250665 0.000000 
5.729167 27.145597 0.000000 
5.729167 28.045278 0.000000 
0.520833 28.956533 0.000000 
0.520833 29.880726 0.000000 
0.520833 30.816314 0.000000 
0.520833 31.760689 0.000000 
0.520833 32.711150 0.000000 
0.520833 33.666935 0.000000 
1.562500 28.956533 0.000000 
1.562500 29.880726 0.000000 
1.562500 30.816314 0.000000 
1.562500 31.760689 0.000000 
1.562500 32.711150 0.000000 
1.562500 33.666935 0.000000 
2.604167 28.956533 0.000000 
2.604167 29.880726 0.000000 
2.604167 30.816314 0.000000 
2.604167 31.760689 0.000000 
2.604167 32.711150 0.000000 
2.604167 33.666935 0.000000 
3.645833 28.956533 0.000000 
3.645833 29.880726 0.000000 
3.645833 30.816314 0.000000 
3.645833 31.760689 0.000000 
3.645833 32.711150 0.000000 
3.645833 33.666935 0.000000 
4.687500 28.956533 0.000000 
4.687500 29.880726 0.000000 
4.687500 30.816314 0.000000 
4.687500 31.760689 0.000000 
4.687500 32.711150 0.000000 
4.687500 33.666935 0.000000 
5.729167 28.956533 0.000000 
5.729167 29.880726 0.000000 
5.729167 30.816314 0.000000 
5.729167 31.760689 0.000000 
5.729167 32.711150 0.000000 
5.729167 33.666935 0.000000 
0.520833 34.636029 0.000000 
0.520833 35.618035 0.000000 
0.520833 36.612131 0.000000 
0.520833 37.621404 0.000000 
0.520833 38.636601 0.000000 
0.520833 39.660075 0.000000 
1.562500 34.636029 0.000000 
1.562500 35.618035 0.000000 
1.562500 36.612131 0.000000 
1.562500 37.621404 0.000000 
1.562500 38.636601 0.000000 
1.562500 39.660075 0.000000 
2.604167 34.636029 0.000000 
2.604167 35.618035 0.000000 
2.604167 36.612131 0.000000 
2.604167 37.621404 0.000000 
2.604167 38.636601 0.000000 
2.604167 39.660075 0.000000 
3.645833 34.636029 0.000000 
3.645833 35.618035 0.000000 
3.645833 36.612131 0.000000 
3.645833 37.621404 0.000000 
3.645833 38.636601 0.000000 
3.645833 39.660075 0.000000 
4.687500 34.636029 0.000000 
4.687500 35.618035 0.000000 
4.687500 36.612131 0.000000 
4.687500 37.621404 0.000000 
4.687500 38.636601 0.000000 
4.687500 39.660075 0.000000 
5.729167 34.636029 0.000000 
5.729167 35.618035 0.000000 
5.729167 36.612131 0.000000 
5.729167 37.621404 0.000000 
5.729167 38.636601 0.000000 
5.729167 39.660075 0.000000 

POINT_DATA 288
>>>>>>> Stashed changes
SCALARS sigma_xx FLOAT 1
LOOKUP_TABLE default
0.000000
0.000000
0.000000
0.000000
0.000000
0.000000
0.000000
0.000000
0.000000
<<<<<<< Updated upstream
-0.000000
0.000000
-0.000000
0.000000
-0.000000
0.000000
-0.000000
0.000000
0.000000
0.000000
0.000000
0.000000
0.000000
0.000000
0.000000
-0.000000
0.000000
-0.000000
0.000000
0.000000
0.000000
0.000000
0.000000
0.000000
0.000000
0.000000
0.000000
0.000000
-0.000000
0.000000
-0.000000
0.000000
-0.000000
0.000000
-0.000000
-0.000000
0.000000
-0.000000
0.000000
0.000000
0.000000
0.000000
0.000000
-0.000000
-0.000000
-0.000000
-0.000000
-0.000000
-0.000000
-0.000000
-0.000000
0.000000
0.000000
0.000000
0.000000
-0.000000
0.000000
-0.000000
0.000000
0.000000
0.000000
0.000000
0.000000
-0.000000
0.000000
-0.000000
-0.000000
0.000000
0.000000
0.000000
0.000000
0.000000
0.000000
0.000000
0.000000
0.000000
0.000000
0.000000
0.000000
0.000000
0.000000
0.000000
0.000000
0.000000
-0.000000
0.000000
-0.000000
-0.000000
0.000000
-0.000000
0.000000
-0.000000
0.000000
-0.000000
0.000000
0.000000
-0.000000
0.000000
-0.000000
-0.000000
-0.000000
-0.000000
-0.000000
0.000000
0.000000
0.000000
0.000000
-0.000000
-0.000000
-0.000000
-0.000000
-0.000000
-0.000000
-0.000000
-0.000000
0.000000
-0.000000
0.000000
-0.000000
0.000000
0.000000
0.000000
0.000000
-0.000000
0.000000
-0.000000
0.000000
-0.000000
-0.000000
-0.000000
-0.000000
0.000000
0.000000
0.000000
0.000000
0.000000
-0.000000
0.000000
-0.000000
0.000000
-0.000000
0.000000
-0.000000
0.000000
-0.000000
0.000000
-0.000000
0.000000
-0.000000
0.000000
-0.000000
-0.000000
0.000000
-0.000000
0.000000
-0.000000
-0.000000
-0.000000
-0.000000
-0.000000
-0.000000
-0.000000
-0.000000
-0.000000
0.000000
-0.000000
0.000000
-0.000000
0.000000
-0.000000
-0.000000
-0.000000
-0.000000
-0.000000
-0.000000
0.000000
0.000000
0.000000
-0.000000
-0.000000
-0.000000
-0.000000
-0.000000
0.000000
0.000000
0.000000
0.000000
-0.000000
-0.000000
-0.000000
-0.000000
-0.000000
-0.000000
-0.000000
-0.000000
-0.000000
-0.000000
-0.000000
-0.000000
-0.000000
-0.000000
-0.000000
-0.000000
-0.000000
-0.000000
-0.000000
-0.000000
-0.000000
-0.000000
-0.000000
-0.000000
0.000000
-0.000000
0.000000
-0.000000
-0.000000
-0.000000
-0.000000
-0.000000
-0.000000
-0.000000
-0.000000
-0.000000
0.000000
-0.000000
0.000000
-0.000000
-0.000000
-0.000000
-0.000000
-0.000000
-0.000000
-0.000000
-0.000000
-0.000000
-0.000000
-0.000000
-0.000000
-0.000000
-0.000000
-0.000000
-0.000000
-0.000000
-0.000000
-0.000000
-0.000000
-0.000000
0.000000
-0.000000
0.000000
-0.000000
-0.000000
0.000000
-0.000000
0.000000
0.000000
-0.000000
0.000000
-0.000000
-0.000000
-0.000000
-0.000000
-0.000000
0.000000
-0.000000
0.000000
-0.000000
0.000000
0.000000
0.000000
0.000000
-0.000000
-0.000000
-0.000000
-0.000000
-0.000000
-0.000000
-0.000000
-0.000000
-0.000000
0.000000
-0.000000
0.000000
0.000000
-0.000000
0.000000
-0.000000
-0.000000
0.000000
-0.000000
0.000000
0.000000
0.000000
0.000000
0.000000
-0.000000
-0.000000
-0.000000
-0.000000
-0.000000
-0.000000
-0.000000
-0.000000
-0.000000
-0.000000
-0.000000
-0.000000
-0.000000
-0.000000
-0.000000
-0.000000
0.000000
-0.000000
0.000000
-0.000000
-0.000000
-0.000000
-0.000000
-0.000000
-0.000000
-0.000000
-0.000000
-0.000000
-0.000000
0.000000
-0.000000
-0.000000
0.000000
-0.000000
-0.000000
-0.000000
0.000000
0.000000
0.000000
0.000000
-0.000000
-0.000000
-0.000000
-0.000000
-0.000000
-0.000000
-0.000000
-0.000000
-0.000000
0.000000
-0.000000
0.000000
-0.000000
-0.000000
-0.000000
-0.000000
-0.000000
-0.000000
-0.000000
-0.000000
0.000000
-0.000000
0.000000
-0.000000
-0.000000
-0.000000
-0.000000
-0.000000
-0.000000
-0.000000
-0.000000
-0.000000
0.000000
-0.000000
0.000000
-0.000000
-0.000000
-0.000000
-0.000000
0.000000
-0.000000
-0.000000
-0.000000
-0.000000
-0.000000
-0.000000
-0.000000
-0.000000
-0.000000
0.000000
-0.000000
-0.000000
-0.000000
-0.000000
-0.000000
-0.000000
0.000000
0.000000
0.000000
-0.000000
-0.000000
-0.000000
-0.000000
-0.000000
-0.000000
-0.000000
-0.000000
-0.000000
-0.000000
-0.000000
-0.000000
-0.000000
-0.000000
-0.000000
-0.000000
-0.000000
-0.000000
-0.000000
-0.000000
-0.000000
0.000000
-0.000000
0.000000
-0.000000
-0.000000
-0.000000
-0.000000
-0.000000
-0.000000
-0.000000
-0.000000
-0.000000
-0.000000
0.000000
-0.000000
0.000000
0.000000
-0.000000
0.000000
-0.000000
0.000000
-0.000000
0.000000
-0.000000
0.000000
0.000000
0.000000
-0.000000
-0.000000
0.000000
-0.000000
-0.000000
-0.000000
0.000000
-0.000000
0.000000
0.000000
-0.000000
0.000000
-0.000000
-0.000000
-0.000000
-0.000000
-0.000000
-0.000000
-0.000000
-0.000000
-0.000000
-0.000000
-0.000000
-0.000000
-0.000000
0.000000
0.000000
0.000000
0.000000
-0.000000
-0.000000
0.000000
-0.000000
-0.000000
-0.000000
-0.000000
-0.000000
0.000000
0.000000
0.000000
0.000000
0.000000
0.000000
0.000000
0.000000
-0.000000
-0.000000
-0.000000
-0.000000
0.000000
-0.000000
0.000000
-0.000000
-0.000000
-0.000000
-0.000000
-0.000000
-0.000000
-0.000000
-0.000000
-0.000000
-0.000000
-0.000000
-0.000000
-0.000000
-0.000000
-0.000000
-0.000000
-0.000000
-0.000000
-0.000000
-0.000000
-0.000000
-0.000000
-0.000000
-0.000000
-0.000000
-0.000000
-0.000000
-0.000000
-0.000000
-0.000000
-0.000000
-0.000000
-0.000000
-0.000000
-0.000000
-0.000000
-0.000000
-0.000000
-0.000000
-0.000000
-0.000000
-0.000000
-0.000000
-0.000000
-0.000000
-0.000000
-0.000000
-0.000000
-0.000000
-0.000000
-0.000000
0.000000
-0.000000
-0.000000
0.000000
-0.000000
0.000000
0.000000
-0.000000
0.000000
0.000000
-0.000000
-0.000000
-0.000000
-0.000000
-0.000000
0.000000
-0.000000
-0.000000
-0.000000
-0.000000
-0.000000
-0.000000
-0.000000
-0.000000
-0.000000
-0.000000
-0.000000
0.000000
-0.000000
0.000000
-0.000000
-0.000000
-0.000000
-0.000000
-0.000000
-0.000000
-0.000000
-0.000000
0.000000
0.000000
0.000000
0.000000
0.000000
-0.000000
0.000000
-0.000000
-0.000000
-0.000000
-0.000000
-0.000000
-0.000000
0.000000
-0.000000
-0.000000
-0.000000
-0.000000
-0.000000
-0.000000
-0.000000
-0.000000
-0.000000
-0.000000
0.000000
0.000000
0.000000
0.000000
-0.000000
0.000000
-0.000000
0.000000
-0.000000
-0.000000
-0.000000
-0.000000
0.000000
-0.000000
0.000000
-0.000000
-0.000000
-0.000000
-0.000000
-0.000000
-0.000000
-0.000000
-0.000000
-0.000000
-0.000000
-0.000000
-0.000000
-0.000000
0.000000
-0.000000
-0.000000
-0.000000
-0.000000
-0.000000
-0.000000
-0.000000
-0.000000
-0.000000
-0.000000
-0.000000
-0.000000
-0.000000
-0.000000
-0.000000
0.000000
-0.000000
0.000000
-0.000000
-0.000000
-0.000000
-0.000000
-0.000000
-0.000000
-0.000000
-0.000000
-0.000000
-0.000000
-0.000000
-0.000000
-0.000000
-0.000000
-0.000000
-0.000000
-0.000000
0.000000
-0.000000
0.000000
-0.000000
-0.000000
-0.000000
-0.000000
-0.000000
-0.000000
-0.000000
-0.000000
-0.000000
-0.000000
-0.000000
-0.000000
-0.000000
0.000000
-0.000000
0.000000
-0.000000
-0.000000
-0.000000
-0.000000
-0.000000
-0.000000
0.000000
-0.000000
-0.000000
-0.000000
-0.000000
-0.000000
-0.000000
-0.000000
-0.000000
-0.000000
-0.000000
-0.000000
-0.000000
-0.000000
-0.000000
-0.000000
0.000000
-0.000000
-0.000000
-0.000000
-0.000000
-0.000000
-0.000000
-0.000000
-0.000000
-0.000000
-0.000000
-0.000000
-0.000000
-0.000000
-0.000000
-0.000000
-0.000000
-0.000000
-0.000000
-0.000000
-0.000000
-0.000000
-0.000000
-0.000000
-0.000000
-0.000000
-0.000000
-0.000000
-0.000000
-0.000000
-0.000000
-0.000000
-0.000000
-0.000000
-0.000000
-0.000000
-0.000000
-0.000000
-0.000000
-0.000000
-0.000000
-0.000000
-0.000000
-0.000000
-0.000000
-0.000000
-0.000000
-0.000000
-0.000000
-0.000000
-0.000000
0.000000
0.000000
0.000000
0.000000
-0.000000
-0.000000
-0.000000
-0.000000
-0.000000
-0.000000
-0.000000
-0.000000
-0.000000
-0.000000
-0.000000
-0.000000
-0.000000
-0.000000
-0.000000
-0.000000
0.000000
-0.000000
0.000000
-0.000000
-0.000000
-0.000000
-0.000000
-0.000000
-0.000000
-0.000000
-0.000000
-0.000000
-0.000000
-0.000000
-0.000000
-0.000000
-0.000000
-0.000000
-0.000000
-0.000000
-0.000000
-0.000000
-0.000000
-0.000000
0.000000
0.000000
0.000000
0.000000
0.000000
-0.000000
0.000000
-0.000000
-0.000000
-0.000000
-0.000000
-0.000000
-0.000000
-0.000000
-0.000000
-0.000000
-0.000000
-0.000000
-0.000000
-0.000000
0.000000
-0.000000
0.000000
-0.000000
-0.000000
-0.000000
-0.000000
-0.000000
-0.000000
-0.000000
-0.000000
-0.000000
-0.000000
-0.000000
-0.000000
-0.000000
0.000000
-0.000000
0.000000
-0.000000
-0.000000
-0.000000
-0.000000
-0.000000
-0.000000
-0.000000
-0.000000
-0.000000
-0.000000
-0.000000
-0.000000
-0.000000
0.000000
0.000000
0.000000
0.000000
-0.000000
-0.000000
-0.000000
-0.000000
0.000000
-0.000000
0.000000
-0.000000
0.000000
-0.000000
0.000000
-0.000000
-0.000000
-0.000000
-0.000000
-0.000000
-0.000000
0.000000
-0.000000
0.000000
-0.000000
-0.000000
-0.000000
-0.000000
0.000000
-0.000000
0.000000
-0.000000
-0.000000
-0.000000
-0.000000
-0.000000
-0.000000
-0.000000
-0.000000
-0.000000
0.000000
-0.000000
0.000000
-0.000000
-0.000000
-0.000000
-0.000000
-0.000000
-0.000000
-0.000000
-0.000000
-0.000000
-0.000000
-0.000000
-0.000000
-0.000000
0.000000
-0.000000
0.000000
-0.000000
0.000000
0.000000
0.000000
0.000000
0.000000
0.000000
0.000000
0.000000
-0.000000
-0.000000
-0.000000
-0.000000
-0.000000
-0.000000
-0.000000
-0.000000
-0.000000
-0.000000
-0.000000
-0.000000
-0.000000
-0.000000
-0.000000
-0.000000
-0.000000
0.000000
-0.000000
0.000000
-0.000000
-0.000000
-0.000000
-0.000000
-0.000000
-0.000000
-0.000000
-0.000000
0.000000
-0.000000
0.000000
-0.000000
-0.000000
-0.000000
-0.000000
-0.000000
-0.000000
-0.000000
-0.000000
-0.000000
-0.000000
-0.000000
-0.000000
-0.000000
-0.000000
-0.000000
-0.000000
-0.000000
-0.000000
-0.000000
-0.000000
-0.000000
-0.000000
-0.000000
-0.000000
-0.000000
-0.000000
-0.000000
-0.000000
-0.000000
-0.000000
-0.000000
-0.000000
-0.000000
-0.000000
-0.000000
-0.000000
-0.000000
-0.000000
-0.000000
-0.000000
-0.000000
-0.000000
-0.000000
-0.000000
-0.000000
-0.000000
0.000000
-0.000000
0.000000
-0.000000
-0.000000
-0.000000
-0.000000
-0.000000
-0.000000
-0.000000
-0.000000
-0.000000
-0.000000
-0.000000
-0.000000
-0.000000
-0.000000
-0.000000
0.000000
-0.000000
0.000000
-0.000000
0.000000
0.000000
-0.000000
-0.000000
-0.000000
-0.000000
-0.000000
-0.000000
0.000000
-0.000000
-0.000000
-0.000000
-0.000000
-0.000000
-0.000000
-0.000000
-0.000000
0.000000
0.000000
0.000000
0.000000
-0.000000
-0.000000
-0.000000
-0.000000
-0.000000
-0.000000
-0.000000
-0.000000
0.000000
-0.000000
0.000000
-0.000000
-0.000000
0.000000
-0.000000
0.000000
-0.000000
-0.000000
-0.000000
-0.000000
0.000000
-0.000000
0.000000
-0.000000
0.000000
-0.000000
0.000000
-0.000000
-0.000000
-0.000000
-0.000000
-0.000000
-0.000000
-0.000000
-0.000000
-0.000000
0.000000
-0.000000
0.000000
-0.000000
-0.000000
-0.000000
-0.000000
-0.000000
-0.000000
0.000000
-0.000000
0.000000
-0.000000
-0.000000
-0.000000
-0.000000
-0.000000
-0.000000
-0.000000
-0.000000
0.000000
-0.000000
0.000000
-0.000000
-0.000000
-0.000000
-0.000000
-0.000000
-0.000000
-0.000000
-0.000000
-0.000000
-0.000000
-0.000000
-0.000000
-0.000000
-0.000000
-0.000000
-0.000000
-0.000000
-0.000000
-0.000000
-0.000000
-0.000000
-0.000000
-0.000000
-0.000000
-0.000000
0.000000
0.000000
0.000000
0.000000
-0.000000
-0.000000
-0.000000
-0.000000
-0.000000
-0.000000
-0.000000
-0.000000
-0.000000
0.000000
0.000000
0.000000
-0.000000
0.000000
-0.000000
0.000000
0.000000
-0.000000
0.000000
0.000000
-0.000000
-0.000000
-0.000000
-0.000000
-0.000000
-0.000000
-0.000000
-0.000000
-0.000000
-0.000000
-0.000000
-0.000000
0.000000
-0.000000
0.000000
-0.000000
-0.000000
-0.000000
-0.000000
-0.000000
0.000000
-0.000000
0.000000
-0.000000