# vtk DataFile Version 2.0
MATLAB generated vtk file, WMC
ASCII
DATASET UNSTRUCTURED_GRID
<<<<<<< Updated upstream
POINTS 2048 double
0.024414 0.008270 0.000000 
0.024414 0.024809 0.000000 
0.073242 0.008270 0.000000 
0.073242 0.024809 0.000000 
0.024414 0.041351 0.000000 
0.024414 0.057903 0.000000 
0.073242 0.041351 0.000000 
0.073242 0.057903 0.000000 
0.024414 0.074463 0.000000 
0.024414 0.091034 0.000000 
0.073242 0.074463 0.000000 
0.073242 0.091034 0.000000 
0.024414 0.107614 0.000000 
0.024414 0.124202 0.000000 
0.073242 0.107614 0.000000 
0.073242 0.124202 0.000000 
0.024414 0.140798 0.000000 
0.024414 0.157402 0.000000 
0.073242 0.140798 0.000000 
0.073242 0.157402 0.000000 
0.024414 0.174014 0.000000 
0.024414 0.190636 0.000000 
0.073242 0.174014 0.000000 
0.073242 0.190636 0.000000 
0.024414 0.207266 0.000000 
0.024414 0.223905 0.000000 
0.073242 0.207266 0.000000 
0.073242 0.223905 0.000000 
0.024414 0.240551 0.000000 
0.024414 0.257207 0.000000 
0.073242 0.240551 0.000000 
0.073242 0.257207 0.000000 
0.024414 0.273871 0.000000 
0.024414 0.290544 0.000000 
0.073242 0.273871 0.000000 
0.073242 0.290544 0.000000 
0.024414 0.307226 0.000000 
0.024414 0.323916 0.000000 
0.073242 0.307226 0.000000 
0.073242 0.323916 0.000000 
0.024414 0.340615 0.000000 
0.024414 0.357321 0.000000 
0.073242 0.340615 0.000000 
0.073242 0.357321 0.000000 
0.024414 0.374037 0.000000 
0.024414 0.390762 0.000000 
0.073242 0.374037 0.000000 
0.073242 0.390762 0.000000 
0.024414 0.407496 0.000000 
0.024414 0.424237 0.000000 
0.073242 0.407496 0.000000 
0.073242 0.424237 0.000000 
0.024414 0.440987 0.000000 
0.024414 0.457747 0.000000 
0.073242 0.440987 0.000000 
0.073242 0.457747 0.000000 
0.024414 0.474514 0.000000 
0.024414 0.491291 0.000000 
0.073242 0.474514 0.000000 
0.073242 0.491291 0.000000 
0.024414 0.508076 0.000000 
0.024414 0.524870 0.000000 
0.073242 0.508076 0.000000 
0.073242 0.524870 0.000000 
0.024414 0.541672 0.000000 
0.024414 0.558484 0.000000 
0.073242 0.541672 0.000000 
0.073242 0.558484 0.000000 
0.024414 0.575304 0.000000 
0.024414 0.592133 0.000000 
0.073242 0.575304 0.000000 
0.073242 0.592133 0.000000 
0.024414 0.608971 0.000000 
0.024414 0.625817 0.000000 
0.073242 0.608971 0.000000 
0.073242 0.625817 0.000000 
0.024414 0.642673 0.000000 
0.024414 0.659537 0.000000 
0.073242 0.642673 0.000000 
0.073242 0.659537 0.000000 
0.024414 0.676410 0.000000 
0.024414 0.693292 0.000000 
0.073242 0.676410 0.000000 
0.073242 0.693292 0.000000 
0.024414 0.710183 0.000000 
0.024414 0.727082 0.000000 
0.073242 0.710183 0.000000 
0.073242 0.727082 0.000000 
0.024414 0.743991 0.000000 
0.024414 0.760908 0.000000 
0.073242 0.743991 0.000000 
0.073242 0.760908 0.000000 
0.024414 0.777835 0.000000 
0.024414 0.794770 0.000000 
0.073242 0.777835 0.000000 
0.073242 0.794770 0.000000 
0.024414 0.811713 0.000000 
0.024414 0.828667 0.000000 
0.073242 0.811713 0.000000 
0.073242 0.828667 0.000000 
0.024414 0.845627 0.000000 
0.024414 0.862598 0.000000 
0.073242 0.845627 0.000000 
0.073242 0.862598 0.000000 
0.024414 0.879578 0.000000 
0.024414 0.896567 0.000000 
0.073242 0.879578 0.000000 
0.073242 0.896567 0.000000 
0.024414 0.913564 0.000000 
0.024414 0.930572 0.000000 
0.073242 0.913564 0.000000 
0.073242 0.930572 0.000000 
0.024414 0.947587 0.000000 
0.024414 0.964612 0.000000 
0.073242 0.947587 0.000000 
0.073242 0.964612 0.000000 
0.024414 0.981646 0.000000 
0.024414 0.998690 0.000000 
0.073242 0.981646 0.000000 
0.073242 0.998690 0.000000 
0.024414 1.015742 0.000000 
0.024414 1.032803 0.000000 
0.073242 1.015742 0.000000 
0.073242 1.032803 0.000000 
0.024414 1.049873 0.000000 
0.024414 1.066952 0.000000 
0.073242 1.049873 0.000000 
0.073242 1.066952 0.000000 
0.024414 1.084041 0.000000 
0.024414 1.101137 0.000000 
0.073242 1.084041 0.000000 
0.073242 1.101137 0.000000 
0.024414 1.118244 0.000000 
0.024414 1.135360 0.000000 
0.073242 1.118244 0.000000 
0.073242 1.135360 0.000000 
0.024414 1.152485 0.000000 
0.024414 1.169619 0.000000 
0.073242 1.152485 0.000000 
0.073242 1.169619 0.000000 
0.024414 1.186762 0.000000 
0.024414 1.203916 0.000000 
0.073242 1.186762 0.000000 
0.073242 1.203916 0.000000 
0.024414 1.221077 0.000000 
0.024414 1.238248 0.000000 
0.073242 1.221077 0.000000 
0.073242 1.238248 0.000000 
0.024414 1.255428 0.000000 
0.024414 1.272617 0.000000 
0.073242 1.255428 0.000000 
0.073242 1.272617 0.000000 
0.024414 1.289816 0.000000 
0.024414 1.307024 0.000000 
0.073242 1.289816 0.000000 
0.073242 1.307024 0.000000 
0.024414 1.324240 0.000000 
0.024414 1.341467 0.000000 
0.073242 1.324240 0.000000 
0.073242 1.341467 0.000000 
0.024414 1.358702 0.000000 
0.024414 1.375948 0.000000 
0.073242 1.358702 0.000000 
0.073242 1.375948 0.000000 
0.024414 1.393202 0.000000 
0.024414 1.410467 0.000000 
0.073242 1.393202 0.000000 
0.073242 1.410467 0.000000 
0.024414 1.427740 0.000000 
0.024414 1.445022 0.000000 
0.073242 1.427740 0.000000 
0.073242 1.445022 0.000000 
0.024414 1.462314 0.000000 
0.024414 1.479615 0.000000 
0.073242 1.462314 0.000000 
0.073242 1.479615 0.000000 
0.024414 1.496926 0.000000 
0.024414 1.514245 0.000000 
0.073242 1.496926 0.000000 
0.073242 1.514245 0.000000 
0.024414 1.531575 0.000000 
0.024414 1.548914 0.000000 
0.073242 1.531575 0.000000 
0.073242 1.548914 0.000000 
0.024414 1.566263 0.000000 
0.024414 1.583621 0.000000 
0.073242 1.566263 0.000000 
0.073242 1.583621 0.000000 
0.024414 1.600989 0.000000 
0.024414 1.618365 0.000000 
0.073242 1.600989 0.000000 
0.073242 1.618365 0.000000 
0.024414 1.635752 0.000000 
0.024414 1.653148 0.000000 
0.073242 1.635752 0.000000 
0.073242 1.653148 0.000000 
0.024414 1.670553 0.000000 
0.024414 1.687969 0.000000 
0.073242 1.670553 0.000000 
0.073242 1.687969 0.000000 
0.024414 1.705393 0.000000 
0.024414 1.722828 0.000000 
0.073242 1.705393 0.000000 
0.073242 1.722828 0.000000 
0.024414 1.740271 0.000000 
0.024414 1.757724 0.000000 
0.073242 1.740271 0.000000 
0.073242 1.757724 0.000000 
0.024414 1.775188 0.000000 
0.024414 1.792659 0.000000 
0.073242 1.775188 0.000000 
0.073242 1.792659 0.000000 
0.024414 1.810142 0.000000 
0.024414 1.827634 0.000000 
0.073242 1.810142 0.000000 
0.073242 1.827634 0.000000 
0.024414 1.845136 0.000000 
0.024414 1.862648 0.000000 
0.073242 1.845136 0.000000 
0.073242 1.862648 0.000000 
0.024414 1.880168 0.000000 
0.024414 1.897699 0.000000 
0.073242 1.880168 0.000000 
0.073242 1.897699 0.000000 
0.024414 1.915239 0.000000 
0.024414 1.932789 0.000000 
0.073242 1.915239 0.000000 
0.073242 1.932789 0.000000 
0.024414 1.950349 0.000000 
0.024414 1.967919 0.000000 
0.073242 1.950349 0.000000 
0.073242 1.967919 0.000000 
0.024414 1.985498 0.000000 
0.024414 2.003086 0.000000 
0.073242 1.985498 0.000000 
0.073242 2.003086 0.000000 
0.024414 2.020687 0.000000 
0.024414 2.038295 0.000000 
0.073242 2.020687 0.000000 
0.073242 2.038295 0.000000 
0.024414 2.055914 0.000000 
0.024414 2.073543 0.000000 
0.073242 2.055914 0.000000 
0.073242 2.073543 0.000000 
0.024414 2.091181 0.000000 
0.024414 2.108830 0.000000 
0.073242 2.091181 0.000000 
0.073242 2.108830 0.000000 
0.024414 2.126487 0.000000 
0.024414 2.144156 0.000000 
0.073242 2.126487 0.000000 
0.073242 2.144156 0.000000 
0.024414 2.161833 0.000000 
0.024414 2.179521 0.000000 
0.073242 2.161833 0.000000 
0.073242 2.179521 0.000000 
0.024414 2.197219 0.000000 
0.024414 2.214927 0.000000 
0.073242 2.197219 0.000000 
0.073242 2.214927 0.000000 
0.024414 2.232645 0.000000 
0.024414 2.250372 0.000000 
0.073242 2.232645 0.000000 
0.073242 2.250372 0.000000 
0.024414 2.268109 0.000000 
0.024414 2.285857 0.000000 
0.073242 2.268109 0.000000 
0.073242 2.285857 0.000000 
0.024414 2.303615 0.000000 
0.024414 2.321384 0.000000 
0.073242 2.303615 0.000000 
0.073242 2.321384 0.000000 
0.024414 2.339162 0.000000 
0.024414 2.356950 0.000000 
0.073242 2.339162 0.000000 
0.073242 2.356950 0.000000 
0.024414 2.374749 0.000000 
0.024414 2.392557 0.000000 
0.073242 2.374749 0.000000 
0.073242 2.392557 0.000000 
0.024414 2.410375 0.000000 
0.024414 2.428204 0.000000 
0.073242 2.410375 0.000000 
0.073242 2.428204 0.000000 
0.024414 2.446042 0.000000 
0.024414 2.463889 0.000000 
0.073242 2.446042 0.000000 
0.073242 2.463889 0.000000 
0.024414 2.481748 0.000000 
0.024414 2.499616 0.000000 
0.073242 2.481748 0.000000 
0.073242 2.499616 0.000000 
0.024414 2.517496 0.000000 
0.024414 2.535385 0.000000 
0.073242 2.517496 0.000000 
0.073242 2.535385 0.000000 
0.024414 2.553285 0.000000 
0.024414 2.571196 0.000000 
0.073242 2.553285 0.000000 
0.073242 2.571196 0.000000 
0.024414 2.589115 0.000000 
0.024414 2.607046 0.000000 
0.073242 2.589115 0.000000 
0.073242 2.607046 0.000000 
0.024414 2.624986 0.000000 
0.024414 2.642938 0.000000 
0.073242 2.624986 0.000000 
0.073242 2.642938 0.000000 
0.024414 2.660898 0.000000 
0.024414 2.678871 0.000000 
0.073242 2.660898 0.000000 
0.073242 2.678871 0.000000 
0.024414 2.696853 0.000000 
0.024414 2.714845 0.000000 
0.073242 2.696853 0.000000 
0.073242 2.714845 0.000000 
0.024414 2.732848 0.000000 
0.024414 2.750861 0.000000 
0.073242 2.732848 0.000000 
0.073242 2.750861 0.000000 
0.024414 2.768885 0.000000 
0.024414 2.786917 0.000000 
0.073242 2.768885 0.000000 
0.073242 2.786917 0.000000 
0.024414 2.804963 0.000000 
0.024414 2.823017 0.000000 
0.073242 2.804963 0.000000 
0.073242 2.823017 0.000000 
0.024414 2.841083 0.000000 
0.024414 2.859160 0.000000 
0.073242 2.841083 0.000000 
0.073242 2.859160 0.000000 
0.024414 2.877245 0.000000 
0.024414 2.895341 0.000000 
0.073242 2.877245 0.000000 
0.073242 2.895341 0.000000 
0.024414 2.913449 0.000000 
0.024414 2.931567 0.000000 
0.073242 2.913449 0.000000 
0.073242 2.931567 0.000000 
0.024414 2.949696 0.000000 
0.024414 2.967834 0.000000 
0.073242 2.949696 0.000000 
0.073242 2.967834 0.000000 
0.024414 2.985985 0.000000 
0.024414 3.004145 0.000000 
0.073242 2.985985 0.000000 
0.073242 3.004145 0.000000 
0.024414 3.022314 0.000000 
0.024414 3.040495 0.000000 
0.073242 3.022314 0.000000 
0.073242 3.040495 0.000000 
[...]
POINT_DATA 2048
SCALARS sigma_xx FLOAT 1
LOOKUP_TABLE default
0.000000
-0.000000
0.000000
-0.000000
-0.000000
-0.000000
-0.000000
-0.000000
-0.000000
-0.000000
-0.000000
-0.000000
-0.000000
-0.000000
-0.000000
-0.000000
0.000000
-0.000000
0.000000
-0.000000
-0.000000
-0.000000
-0.000000
-0.000000
0.000000
-0.000000
0.000000
-0.000000
0.000000
-0.000000
0.000000
-0.000000
-0.000000
-0.000000
-0.000000
-0.000000
-0.000000
-0.000000
-0.000000
-0.000000
-0.000000
-0.000000
-0.000000
-0.000000
-0.000000
-0.000000
-0.000000
-0.000000
-0.000000
-0.000000
-0.000000
-0.000000
-0.000000
-0.000000
-0.000000
-0.000000
-0.000000
-0.000000
-0.000000
-0.000000
-0.000000
-0.000000
-0.000000
-0.000000
-0.000000
-0.000000
-0.000000
-0.000000
-0.000000
0.000000
-0.000000
-0.000000
-0.000000
-0.000000
-0.000000
-0.000000
-0.000000
-0.000000
-0.000000
-0.000000
-0.000000
-0.000000
-0.000000
-0.000000
-0.000000
-0.000000
-0.000000
-0.000000
-0.000000
-0.000000
-0.000000
-0.000000
-0.000000
-0.000000
-0.000000
-0.000000
-0.000000
-0.000000
-0.000000
-0.000000
-0.000000
-0.000000
-0.000000
-0.000000
-0.000000
-0.000000
-0.000000
-0.000000
-0.000000
-0.000000
-0.000000
-0.000000
-0.000000
-0.000000
-0.000000
-0.000000
-0.000000
-0.000000
-0.000000
-0.000000
-0.000000
-0.000000
-0.000000
-0.000000
-0.000000
-0.000000
-0.000000
-0.000000
-0.000000
-0.000000
-0.000000
-0.000000
-0.000000
-0.000000
-0.000000
-0.000000
-0.000000
-0.000000
-0.000000
-0.000000
-0.000000
-0.000000
-0.000000
-0.000000
-0.000000
-0.000000
-0.000000
-0.000000
-0.000000
-0.000000
-0.000000
-0.000000
-0.000000
-0.000000
-0.000000
-0.000000
-0.000000
-0.000000
-0.000000
-0.000000
-0.000000
-0.000000
-0.000000
-0.000000
-0.000000
-0.000000
-0.000000
-0.000000
-0.000000
-0.000000
0.000000
-0.000000
-0.000000
-0.000000
-0.000000
-0.000000
-0.000000
-0.000000
-0.000000
-0.000000
-0.000000
-0.000000
-0.000000
-0.000000
-0.000000
-0.000000
-0.000000
-0.000000
-0.000000
-0.000000
-0.000000
-0.000000
-0.000000
-0.000000
-0.000000
-0.000000
-0.000000
-0.000000
-0.000000
-0.000000
-0.000000
-0.000000
-0.000000
-0.000000
0.000000
-0.000000
0.000000
-0.000000
-0.000000
-0.000000
=======
POINTS 288 double
0.520833 0.184048 0.000000 
0.520833 0.552145 0.000000 
0.520833 0.920242 0.000000 
0.520833 1.288339 0.000000 
0.520833 1.656436 0.000000 
0.520833 2.024533 0.000000 
1.562500 0.184048 0.000000 
1.562500 0.552145 0.000000 
1.562500 0.920242 0.000000 
1.562500 1.288339 0.000000 
1.562500 1.656436 0.000000 
1.562500 2.024533 0.000000 
2.604167 0.184048 0.000000 
2.604167 0.552145 0.000000 
2.604167 0.920242 0.000000 
2.604167 1.288339 0.000000 
2.604167 1.656436 0.000000 
2.604167 2.024533 0.000000 
3.645833 0.184048 0.000000 
3.645833 0.552145 0.000000 
3.645833 0.920242 0.000000 
3.645833 1.288339 0.000000 
3.645833 1.656436 0.000000 
3.645833 2.024533 0.000000 
4.687500 0.184048 0.000000 
4.687500 0.552145 0.000000 
4.687500 0.920242 0.000000 
4.687500 1.288339 0.000000 
4.687500 1.656436 0.000000 
4.687500 2.024533 0.000000 
5.729167 0.184048 0.000000 
5.729167 0.552145 0.000000 
5.729167 0.920242 0.000000 
5.729167 1.288339 0.000000 
5.729167 1.656436 0.000000 
5.729167 2.024533 0.000000 
0.520833 2.394993 0.000000 
0.520833 2.771732 0.000000 
0.520833 3.154345 0.000000 
0.520833 3.542547 0.000000 
0.520833 3.935889 0.000000 
0.520833 4.333633 0.000000 
1.562500 2.394993 0.000000 
1.562500 2.771732 0.000000 
1.562500 3.154345 0.000000 
1.562500 3.542547 0.000000 
1.562500 3.935889 0.000000 
1.562500 4.333633 0.000000 
2.604167 2.394993 0.000000 
2.604167 2.771732 0.000000 
2.604167 3.154345 0.000000 
2.604167 3.542547 0.000000 
2.604167 3.935889 0.000000 
2.604167 4.333633 0.000000 
3.645833 2.394993 0.000000 
3.645833 2.771732 0.000000 
3.645833 3.154345 0.000000 
3.645833 3.542547 0.000000 
3.645833 3.935889 0.000000 
3.645833 4.333633 0.000000 
4.687500 2.394993 0.000000 
4.687500 2.771732 0.000000 
4.687500 3.154345 0.000000 
4.687500 3.542547 0.000000 
4.687500 3.935889 0.000000 
4.687500 4.333633 0.000000 
5.729167 2.394993 0.000000 
5.729167 2.771732 0.000000 
5.729167 3.154345 0.000000 
5.729167 3.542547 0.000000 
5.729167 3.935889 0.000000 
5.729167 4.333633 0.000000 
0.520833 4.737506 0.000000 
0.520833 5.149464 0.000000 
0.520833 5.569413 0.000000 
0.520833 5.997295 0.000000 
0.520833 6.432259 0.000000 
0.520833 6.871273 0.000000 
1.562500 4.737506 0.000000 
1.562500 5.149464 0.000000 
1.562500 5.569413 0.000000 
1.562500 5.997295 0.000000 
1.562500 6.432259 0.000000 
1.562500 6.871273 0.000000 
2.604167 4.737506 0.000000 
2.604167 5.149464 0.000000 
2.604167 5.569413 0.000000 
2.604167 5.997295 0.000000 
2.604167 6.432259 0.000000 
2.604167 6.871273 0.000000 
3.645833 4.737506 0.000000 
3.645833 5.149464 0.000000 
3.645833 5.569413 0.000000 
3.645833 5.997295 0.000000 
3.645833 6.432259 0.000000 
3.645833 6.871273 0.000000 
4.687500 4.737506 0.000000 
4.687500 5.149464 0.000000 
4.687500 5.569413 0.000000 
4.687500 5.997295 0.000000 
4.687500 6.432259 0.000000 
4.687500 6.871273 0.000000 
5.729167 4.737506 0.000000 
5.729167 5.149464 0.000000 
5.729167 5.569413 0.000000 
5.729167 5.997295 0.000000 
5.729167 6.432259 0.000000 
5.729167 6.871273 0.000000 
0.520833 7.315761 0.000000 
0.520833 7.766750 0.000000 
0.520833 8.224808 0.000000 
0.520833 8.689875 0.000000 
0.520833 9.161855 0.000000 
0.520833 9.640683 0.000000 
1.562500 7.315761 0.000000 
1.562500 7.766750 0.000000 
1.562500 8.224808 0.000000 
1.562500 8.689875 0.000000 
1.562500 9.161855 0.000000 
1.562500 9.640683 0.000000 
2.604167 7.315761 0.000000 
2.604167 7.766750 0.000000 
2.604167 8.224808 0.000000 
2.604167 8.689875 0.000000 
2.604167 9.161855 0.000000 
2.604167 9.640683 0.000000 
3.645833 7.315761 0.000000 
3.645833 7.766750 0.000000 
3.645833 8.224808 0.000000 
3.645833 8.689875 0.000000 
3.645833 9.161855 0.000000 
3.645833 9.640683 0.000000 
4.687500 7.315761 0.000000 
4.687500 7.766750 0.000000 
4.687500 8.224808 0.000000 
4.687500 8.689875 0.000000 
4.687500 9.161855 0.000000 
4.687500 9.640683 0.000000 
5.729167 7.315761 0.000000 
5.729167 7.766750 0.000000 
5.729167 8.224808 0.000000 
5.729167 8.689875 0.000000 
5.729167 9.161855 0.000000 
5.729167 9.640683 0.000000 
0.520833 10.128482 0.000000 
0.520833 10.626389 0.000000 
0.520833 11.135713 0.000000 
0.520833 11.655667 0.000000 
0.520833 12.187201 0.000000 
0.520833 12.729746 0.000000 
1.562500 10.128482 0.000000 
1.562500 10.626389 0.000000 
1.562500 11.135713 0.000000 
1.562500 11.655667 0.000000 
1.562500 12.187201 0.000000 
1.562500 12.729746 0.000000 
2.604167 10.128482 0.000000 
2.604167 10.626389 0.000000 
2.604167 11.135713 0.000000 
2.604167 11.655667 0.000000 
2.604167 12.187201 0.000000 
2.604167 12.729746 0.000000 
3.645833 10.128482 0.000000 
3.645833 10.626389 0.000000 
3.645833 11.135713 0.000000 
3.645833 11.655667 0.000000 
3.645833 12.187201 0.000000 
3.645833 12.729746 0.000000 
4.687500 10.128482 0.000000 
4.687500 10.626389 0.000000 
4.687500 11.135713 0.000000 
4.687500 11.655667 0.000000 
4.687500 12.187201 0.000000 
4.687500 12.729746 0.000000 
5.729167 10.128482 0.000000 
5.729167 10.626389 0.000000 
5.729167 11.135713 0.000000 
5.729167 11.655667 0.000000 
5.729167 12.187201 0.000000 
5.729167 12.729746 0.000000 
0.520833 13.282935 0.000000 
0.520833 13.847360 0.000000 
0.520833 14.423969 0.000000 
0.520833 15.013119 0.000000 
0.520833 15.617367 0.000000 
0.520833 16.235043 0.000000 
1.562500 13.282935 0.000000 
1.562500 13.847360 0.000000 
1.562500 14.423969 0.000000 
1.562500 15.013119 0.000000 
1.562500 15.617367 0.000000 
1.562500 16.235043 0.000000 
2.604167 13.282935 0.000000 
2.604167 13.847360 0.000000 
2.604167 14.423969 0.000000 
2.604167 15.013119 0.000000 
2.604167 15.617367 0.000000 
2.604167 16.235043 0.000000 
3.645833 13.282935 0.000000 
3.645833 13.847360 0.000000 
3.645833 14.423969 0.000000 
3.645833 15.013119 0.000000 
3.645833 15.617367 0.000000 
3.645833 16.235043 0.000000 
4.687500 13.282935 0.000000 
4.687500 13.847360 0.000000 
4.687500 14.423969 0.000000 
4.687500 15.013119 0.000000 
4.687500 15.617367 0.000000 
4.687500 16.235043 0.000000 
5.729167 13.282935 0.000000 
5.729167 13.847360 0.000000 
5.729167 14.423969 0.000000 
5.729167 15.013119 0.000000 
5.729167 15.617367 0.000000 
5.729167 16.235043 0.000000 
0.520833 16.871147 0.000000 
0.520833 17.528447 0.000000 
0.520833 18.207723 0.000000 
0.520833 18.911863 0.000000 
0.520833 19.636347 0.000000 
0.520833 20.379825 0.000000 
1.562500 16.871147 0.000000 
1.562500 17.528447 0.000000 
1.562500 18.207723 0.000000 
1.562500 18.911863 0.000000 
1.562500 19.636347 0.000000 
1.562500 20.379825 0.000000 
2.604167 16.871147 0.000000 
2.604167 17.528447 0.000000 
2.604167 18.207723 0.000000 
2.604167 18.911863 0.000000 
2.604167 19.636347 0.000000 
2.604167 20.379825 0.000000 
3.645833 16.871147 0.000000 
3.645833 17.528447 0.000000 
3.645833 18.207723 0.000000 
3.645833 18.911863 0.000000 
3.645833 19.636347 0.000000 
3.645833 20.379825 0.000000 
4.687500 16.871147 0.000000 
4.687500 17.528447 0.000000 
4.687500 18.207723 0.000000 
4.687500 18.911863 0.000000 
4.687500 19.636347 0.000000 
4.687500 20.379825 0.000000 
5.729167 16.871147 0.000000 
5.729167 17.528447 0.000000 
5.729167 18.207723 0.000000 
5.729167 18.911863 0.000000 
5.729167 19.636347 0.000000 
5.729167 20.379825 0.000000 
0.520833 21.150391 0.000000 
0.520833 21.952995 0.000000 
0.520833 22.790261 0.000000 
0.520833 23.670306 0.000000 
0.520833 24.595148 0.000000 
0.520833 25.567580 0.000000 
1.562500 21.150391 0.000000 
1.562500 21.952995 0.000000 
1.562500 22.790261 0.000000 
1.562500 23.670306 0.000000 
1.562500 24.595148 0.000000 
1.562500 25.567580 0.000000 
2.604167 21.150391 0.000000 
2.604167 21.952995 0.000000 
2.604167 22.790261 0.000000 
2.604167 23.670306 0.000000 
2.604167 24.595148 0.000000 
2.604167 25.567580 0.000000 
3.645833 21.150391 0.000000 
3.645833 21.952995 0.000000 
3.645833 22.790261 0.000000 
3.645833 23.670306 0.000000 
3.645833 24.595148 0.000000 
3.645833 25.567580 0.000000 
4.687500 21.150391 0.000000 
4.687500 21.952995 0.000000 
4.687500 22.790261 0.000000 
4.687500 23.670306 0.000000 
4.687500 24.595148 0.000000 
4.687500 25.567580 0.000000 
5.729167 21.150391 0.000000 
5.729167 21.952995 0.000000 
5.729167 22.790261 0.000000 
5.729167 23.670306 0.000000 
5.729167 24.595148 0.000000 
5.729167 25.567580 0.000000 

POINT_DATA 288
SCALARS sigma_xx FLOAT 1
LOOKUP_TABLE default
0.000000
0.000000
0.000000
0.000000
0.000000
-0.000000
0.000000
0.000000
0.000000
0.000000
0.000000
-0.000000
0.000000
0.000000
0.000000
0.000000
0.000000
-0.000000
0.000000
0.000000
0.000000
0.000000
0.000000
-0.000000
0.000000
0.000000
0.000000
0.000000
0.000000
-0.000000
0.000000
0.000000
0.000000
0.000000
>>>>>>> Stashed changes
-0.000000
-0.000000
-0.000000
-0.000000
-0.000000
-0.000000
-0.000000
<<<<<<< Updated upstream
=======
0.000000
>>>>>>> Stashed changes
-0.000000
-0.000000
-0.000000
-0.000000
<<<<<<< Updated upstream
=======
0.000000
0.000000
>>>>>>> Stashed changes
-0.000000
-0.000000
-0.000000
-0.000000
<<<<<<< Updated upstream
=======
0.000000
0.000000
>>>>>>> Stashed changes
-0.000000
-0.000000
-0.000000
-0.000000
<<<<<<< Updated upstream
=======
0.000000
0.000000
>>>>>>> Stashed changes
-0.000000
-0.000000
-0.000000
-0.000000
<<<<<<< Updated upstream
=======
0.000000
0.000000
>>>>>>> Stashed changes
-0.000000
-0.000000
-0.000000
-0.000000
-0.000000
<<<<<<< Updated upstream
=======
0.000000
>>>>>>> Stashed changes
-0.000000
-0.000000
-0.000000
-0.000000
-0.000000
-0.000000
<<<<<<< Updated upstream
-0.000000
-0.000000
-0.000000
-0.000000
-0.000000
-0.000000
-0.000000
-0.000000
-0.000000
-0.000000
-0.000000
-0.000000
-0.000000
-0.000000
-0.000000
-0.000000
-0.000000
-0.000000
-0.000000
-0.000000
-0.000000
-0.000000
=======
0.000000
0.000000
0.000000
>>>>>>> Stashed changes
-0.000000
-0.000000
-0.000000
0.000000
<<<<<<< Updated upstream
-0.000000
=======
0.000000
>>>>>>> Stashed changes
0.000000
-0.000000
-0.000000
-0.000000
<<<<<<< Updated upstream
-0.000000
-0.000000
-0.000000
=======
0.000000
0.000000
0.000000
-0.000000
-0.000000
-0.000000
0.000000
0.000000
0.000000
>>>>>>> Stashed changes
-0.000000
-0.000000
-0.000000
-0.000000
<<<<<<< Updated upstream
=======
0.000000
0.000000
-0.000000
-0.000000
-0.000000
>>>>>>> Stashed changes
-0.000000
-0.000000
-0.000000
-0.000000
-0.000000
-0.000000
<<<<<<< Updated upstream
-0.000000
-0.000000
-0.000000
-0.000000
-0.000000
0.000000
-0.000000
-0.000000
-0.000000
-0.000000
-0.000000
-0.000000
-0.000000
-0.000000
-0.000000
-0.000000
-0.000000
-0.000000
-0.000000
-0.000000
-0.000000
-0.000000
-0.000000
-0.000000
-0.000000
-0.000000
-0.000000
-0.000000
-0.000000
-0.000000
-0.000000
-0.000000
-0.000000
-0.000000
-0.000000
-0.000000
-0.000000
-0.000000
-0.000000
-0.000000
-0.000000
-0.000000
-0.000000
-0.000000
-0.000000
-0.000000
-0.000000
-0.000000
-0.000000
-0.000000
-0.000000
-0.000000
-0.000000
-0.000000
-0.000000
-0.000000
-0.000000
-0.000000
-0.000000
-0.000000
-0.000000
-0.000000
-0.000000
-0.000000
-0.000000
-0.000000
-0.000000
-0.000000
-0.000000
-0.000000
-0.000000
-0.000000
-0.000000
-0.000000
-0.000000
-0.000000
-0.000000
-0.000000
-0.000000
-0.000000
0.000000
-0.000000
-0.000000
-0.000000
-0.000000
-0.000000
-0.000000
-0.000000
-0.000000
-0.000000
-0.000000
-0.000000
-0.000000
-0.000000
-0.000000
-0.000000
-0.000000
-0.000000
-0.000000
-0.000000
-0.000000
-0.000000
-0.000000
-0.000000
-0.000000
-0.000000
-0.000000
-0.000000
-0.000000
-0.000000
-0.000000
-0.000000
-0.000000
-0.000000
-0.000000
-0.000000
-0.000000
-0.000000
-0.000000
-0.000000
-0.000000
-0.000000
-0.000000
-0.000000
-0.000000
-0.000000
-0.000000
-0.000000
-0.000000
-0.000000
-0.000000
-0.000000
-0.000000
-0.000000
-0.000000
-0.000000
-0.000000
-0.000000
-0.000000
-0.000000
-0.000000
-0.000000
-0.000000
-0.000000
-0.000000
-0.000000
-0.000000
-0.000000
-0.000000
-0.000000
-0.000000
-0.000000
-0.000000
-0.000000
-0.000000
-0.000000
-0.000000
-0.000000
-0.000000
-0.000000
-0.000000
-0.000000
-0.000000
-0.000000
-0.000000
-0.000000
-0.000000
-0.000000
-0.000000
-0.000000
-0.000000
-0.000000
-0.000000
-0.000000
-0.000000
-0.000000
-0.000000
-0.000000
-0.000000
-0.000000
-0.000000
-0.000000
-0.000000
-0.000000
-0.000000
-0.000000
-0.000000
-0.000000
-0.000000
-0.000000
-0.000000
-0.000000
-0.000000
-0.000000
-0.000000
-0.000000
-0.000000
-0.000000
-0.000000
-0.000000
-0.000000
-0.000000
-0.000000
-0.000000
-0.000000
-0.000000
-0.000000
-0.000000
-0.000000
-0.000000
-0.000000
-0.000000
-0.000000
-0.000000
-0.000000
-0.000000
-0.000000
-0.000000
-0.000000
-0.000000
0.000000
-0.000000
-0.000000
-0.000000
-0.000000
-0.000000
-0.000000
-0.000000
-0.000000
-0.000000
-0.000000
-0.000000
-0.000000
-0.000000
-0.000000
-0.000000
-0.000000
-0.000000
-0.000000
-0.000000
-0.000000
-0.000000
-0.000000
-0.000000
-0.000000
-0.000000
-0.000000
-0.000000
-0.000000
-0.000000
-0.000000
-0.000000
-0.000000
-0.000000
-0.000000
-0.000000
-0.000000
-0.000000
-0.000000
-0.000000
-0.000000
-0.000000
-0.000000
-0.000000
-0.000000
-0.000000
-0.000000
-0.000000
-0.000000
-0.000000
-0.000000
-0.000000
-0.000000
-0.000000
-0.000000
-0.000000
-0.000000
-0.000000
-0.000000
-0.000000
-0.000000
-0.000000
-0.000000
-0.000000
-0.000000
-0.000000
-0.000000
-0.000000
-0.000000
-0.000000
-0.000000
-0.000000
-0.000000
-0.000000
-0.000000
-0.000000
-0.000000
-0.000000
-0.000000
-0.000000
-0.000000
-0.000000
-0.000000
-0.000000
-0.000000
-0.000000
-0.000000
-0.000000
-0.000000
-0.000000
-0.000000
-0.000000
-0.000000
-0.000000
-0.000000
-0.000000
-0.000000
-0.000000
-0.000000
-0.000000
-0.000000
-0.000000
-0.000000
-0.000000
-0.000000
-0.000000
-0.000000
-0.000000
-0.000000
-0.000000
-0.000000
-0.000000
-0.000000
-0.000000
-0.000000
-0.000000
-0.000000
-0.000000
0.000000
-0.000000
-0.000000
-0.000000
-0.000000
-0.000000
-0.000000
-0.000000
-0.000000
-0.000000
-0.000000
-0.000000
-0.000000
-0.000000
-0.000000
-0.000000
-0.000000
-0.000000
-0.000000
-0.000000
-0.000000
-0.000000
-0.000000
-0.000000
-0.000000
-0.000000
-0.000000
-0.000000
-0.000000
-0.000000
-0.000000
-0.000000
-0.000000
-0.000000
-0.000000
-0.000000
-0.000000
-0.000000
-0.000000
-0.000000
-0.000000
-0.000000
-0.000000
-0.000000
-0.000000
-0.000000
-0.000000
-0.000000
-0.000000
-0.000000
-0.000000
-0.000000
-0.000000
-0.000000
-0.000000
-0.000000
-0.000000
-0.000000
-0.000000
0.000000
-0.000000
-0.000000
-0.000000
-0.000000
-0.000000
-0.000000
-0.000000
-0.000000
-0.000000
-0.000000
-0.000000
-0.000000
-0.000000
-0.000000
-0.000000
-0.000000
-0.000000
-0.000000
-0.000000
-0.000000
-0.000000
-0.000000
-0.000000
-0.000000
-0.000000
-0.000000
-0.000000
-0.000000
-0.000000
-0.000000
-0.000000
-0.000000
-0.000000
-0.000000
-0.000000
-0.000000
-0.000000
-0.000000
-0.000000
-0.000000
-0.000000
-0.000000
-0.000000
-0.000000
-0.000000
-0.000000
-0.000000
-0.000000
-0.000000
-0.000000
-0.000000
-0.000000
-0.000000
-0.000000
-0.000000
-0.000000
-0.000000
-0.000000
-0.000000
-0.000000
-0.000000
-0.000000
-0.000000
-0.000000
-0.000000
-0.000000
-0.000000
-0.000000
-0.000000
-0.000000
-0.000000
-0.000000
-0.000000
-0.000000
-0.000000
-0.000000
-0.000000
-0.000000
-0.000000
-0.000000
-0.000000
-0.000000
-0.000000
-0.000000
-0.000000
-0.000000
-0.000000
-0.000000
-0.000000
-0.000000
-0.000000
-0.000000
-0.000000
-0.000000
-0.000000
-0.000000
-0.000000
-0.000000
-0.000000
-0.000000
-0.000000
-0.000000
-0.000000
-0.000000
-0.000000
-0.000000
-0.000000
-0.000000
-0.000000
-0.000000
-0.000000
-0.000000
-0.000000
-0.000000
-0.000000
-0.000000
-0.000000
-0.000000
-0.000000
-0.000000
-0.000000
-0.000000
-0.000000
-0.000000
-0.000000
-0.000000
-0.000000
-0.000000
-0.000000
-0.000000
-0.000000
-0.000000
-0.000000
-0.000000
-0.000000
0.000000
-0.000000
0.000000
-0.000000
-0.000000
-0.000000
-0.000000
-0.000000
-0.000000
-0.000000
-0.000000
-0.000000
-0.000000
-0.000000
-0.000000
-0.000000
-0.000000
-0.000000
-0.000000
-0.000000
-0.000000
-0.000000
-0.000000
-0.000000
-0.000000
-0.000000
-0.000000
-0.000000
-0.000000
-0.000000
-0.000000
-0.000000
-0.000000
-0.000000
-0.000000
-0.000000
-0.000000
0.000000
-0.000000
-0.000000
-0.000000
-0.000000
-0.000000
-0.000000
-0.000000
-0.000000
-0.000000
-0.000000
-0.000000
-0.000000
-0.000000
-0.000000
-0.000000
-0.000000
-0.000000
-0.000000
-0.000000
-0.000000
-0.000000
-0.000000
-0.000000
-0.000000
-0.000000
-0.000000
-0.000000
-0.000000
-0.000000
-0.000000
-0.000000
-0.000000
-0.000000
-0.000000
-0.000000
-0.000000
-0.000000
-0.000000
-0.000000
-0.000000
-0.000000
-0.000000
-0.000000
-0.000000
-0.000000
-0.000000
-0.000000
-0.000000
-0.000000
-0.000000
-0.000000
-0.000000
-0.000000
-0.000000
-0.000000
-0.000000
-0.000000
-0.000000
-0.000000
-0.000000
-0.000000
-0.000000
-0.000000
-0.000000
-0.000000
-0.000000
-0.000000
-0.000000
-0.000000
-0.000000
-0.000000
-0.000000
-0.000000
-0.000000
-0.000000
-0.000000
-0.000000
-0.000000
-0.000000
-0.000000
-0.000000
-0.000000
-0.000000
-0.000000
-0.000000
-0.000000
-0.000000
-0.000000
-0.000000
-0.000000
-0.000000
-0.000000
-0.000000
-0.000000
-0.000000
-0.000000
-0.000000
-0.000000
-0.000000
-0.000000
-0.000000
-0.000000
-0.000000
-0.000000
-0.000000
-0.000000
-0.000000
-0.000000
-0.000000
-0.000000
-0.000000
-0.000000
-0.000000
-0.000000
-0.000000
-0.000000
-0.000000
-0.000000
-0.000000
-0.000000
-0.000000
-0.000000
-0.000000
-0.000000
-0.000000
-0.000000
-0.000000
-0.000000
-0.000000
-0.000000
-0.000000
-0.000000
-0.000000
-0.000000
-0.000000
-0.000000
-0.000000
-0.000000
0.000000
-0.000000
-0.000000
-0.000000
-0.000000
-0.000000
-0.000000
-0.000000
-0.000000
-0.000000
-0.000000
-0.000000
-0.000000
-0.000000
-0.000000
-0.000000
-0.000000
-0.000000
-0.000000
-0.000000
-0.000000
-0.000000
-0.000000
-0.000000
-0.000000
-0.000000
-0.000000
-0.000000
-0.000000
-0.000000
-0.000000
-0.000000
-0.000000
-0.000000
-0.000000
-0.000000
-0.000000
-0.000000
-0.000000
-0.000000
-0.000000
-0.000000
-0.000000
-0.000000
-0.000000
-0.000000
-0.000000
-0.000000
-0.000000
-0.000000