# vtk DataFile Version 2.0
MATLAB generated vtk file, WMC
ASCII
DATASET UNSTRUCTURED_GRID
<<<<<<< Updated upstream
POINTS 2048 double
0.024414 0.008854 0.000000 
0.024414 0.026563 0.000000 
0.073242 0.008854 0.000000 
0.073242 0.026563 0.000000 
0.024414 0.044275 0.000000 
0.024414 0.061996 0.000000 
0.073242 0.044275 0.000000 
0.073242 0.061996 0.000000 
0.024414 0.079727 0.000000 
0.024414 0.097470 0.000000 
0.073242 0.079727 0.000000 
0.073242 0.097470 0.000000 
0.024414 0.115221 0.000000 
0.024414 0.132980 0.000000 
0.073242 0.115221 0.000000 
0.073242 0.132980 0.000000 
0.024414 0.150747 0.000000 
0.024414 0.168523 0.000000 
0.073242 0.150747 0.000000 
0.073242 0.168523 0.000000 
0.024414 0.186309 0.000000 
0.024414 0.204104 0.000000 
0.073242 0.186309 0.000000 
0.073242 0.204104 0.000000 
0.024414 0.221907 0.000000 
0.024414 0.239718 0.000000 
0.073242 0.221907 0.000000 
0.073242 0.239718 0.000000 
0.024414 0.257539 0.000000 
0.024414 0.275368 0.000000 
0.073242 0.257539 0.000000 
0.073242 0.275368 0.000000 
0.024414 0.293208 0.000000 
0.024414 0.311055 0.000000 
0.073242 0.293208 0.000000 
0.073242 0.311055 0.000000 
0.024414 0.328911 0.000000 
0.024414 0.346776 0.000000 
0.073242 0.328911 0.000000 
0.073242 0.346776 0.000000 
0.024414 0.364650 0.000000 
0.024414 0.382533 0.000000 
0.073242 0.364650 0.000000 
0.073242 0.382533 0.000000 
0.024414 0.400425 0.000000 
0.024414 0.418327 0.000000 
0.073242 0.400425 0.000000 
0.073242 0.418327 0.000000 
0.024414 0.436237 0.000000 
0.024414 0.454155 0.000000 
0.073242 0.436237 0.000000 
0.073242 0.454155 0.000000 
0.024414 0.472083 0.000000 
0.024414 0.490020 0.000000 
0.073242 0.472083 0.000000 
0.073242 0.490020 0.000000 
0.024414 0.507966 0.000000 
0.024414 0.525921 0.000000 
0.073242 0.507966 0.000000 
0.073242 0.525921 0.000000 
0.024414 0.543884 0.000000 
0.024414 0.561857 0.000000 
0.073242 0.543884 0.000000 
0.073242 0.561857 0.000000 
0.024414 0.579839 0.000000 
0.024414 0.597831 0.000000 
0.073242 0.579839 0.000000 
0.073242 0.597831 0.000000 
0.024414 0.615831 0.000000 
0.024414 0.633839 0.000000 
0.073242 0.615831 0.000000 
0.073242 0.633839 0.000000 
0.024414 0.651858 0.000000 
0.024414 0.669885 0.000000 
0.073242 0.651858 0.000000 
0.073242 0.669885 0.000000 
0.024414 0.687922 0.000000 
0.024414 0.705968 0.000000 
0.073242 0.687922 0.000000 
0.073242 0.705968 0.000000 
0.024414 0.724022 0.000000 
0.024414 0.742087 0.000000 
0.073242 0.724022 0.000000 
0.073242 0.742087 0.000000 
0.024414 0.760160 0.000000 
0.024414 0.778242 0.000000 
0.073242 0.760160 0.000000 
0.073242 0.778242 0.000000 
0.024414 0.796335 0.000000 
0.024414 0.814435 0.000000 
0.073242 0.796335 0.000000 
0.073242 0.814435 0.000000 
0.024414 0.832545 0.000000 
0.024414 0.850664 0.000000 
0.073242 0.832545 0.000000 
0.073242 0.850664 0.000000 
0.024414 0.868792 0.000000 
0.024414 0.886930 0.000000 
0.073242 0.868792 0.000000 
0.073242 0.886930 0.000000 
0.024414 0.905077 0.000000 
0.024414 0.923233 0.000000 
0.073242 0.905077 0.000000 
0.073242 0.923233 0.000000 
0.024414 0.941398 0.000000 
0.024414 0.959572 0.000000 
0.073242 0.941398 0.000000 
0.073242 0.959572 0.000000 
0.024414 0.977757 0.000000 
0.024414 0.995951 0.000000 
0.073242 0.977757 0.000000 
0.073242 0.995951 0.000000 
0.024414 1.014153 0.000000 
0.024414 1.032365 0.000000 
0.073242 1.014153 0.000000 
0.073242 1.032365 0.000000 
0.024414 1.050586 0.000000 
0.024414 1.068818 0.000000 
0.073242 1.050586 0.000000 
0.073242 1.068818 0.000000 
0.024414 1.087058 0.000000 
0.024414 1.105307 0.000000 
0.073242 1.087058 0.000000 
0.073242 1.105307 0.000000 
0.024414 1.123567 0.000000 
0.024414 1.141835 0.000000 
0.073242 1.123567 0.000000 
0.073242 1.141835 0.000000 
0.024414 1.160113 0.000000 
0.024414 1.178400 0.000000 
0.073242 1.160113 0.000000 
0.073242 1.178400 0.000000 
0.024414 1.196698 0.000000 
0.024414 1.215003 0.000000 
0.073242 1.196698 0.000000 
0.073242 1.215003 0.000000 
0.024414 1.233318 0.000000 
0.024414 1.251643 0.000000 
0.073242 1.233318 0.000000 
0.073242 1.251643 0.000000 
0.024414 1.269977 0.000000 
0.024414 1.288323 0.000000 
0.073242 1.269977 0.000000 
0.073242 1.288323 0.000000 
0.024414 1.306676 0.000000 
0.024414 1.325039 0.000000 
0.073242 1.306676 0.000000 
0.073242 1.325039 0.000000 
0.024414 1.343412 0.000000 
0.024414 1.361794 0.000000 
0.073242 1.343412 0.000000 
0.073242 1.361794 0.000000 
0.024414 1.380186 0.000000 
0.024414 1.398588 0.000000 
0.073242 1.380186 0.000000 
0.073242 1.398588 0.000000 
0.024414 1.416999 0.000000 
0.024414 1.435420 0.000000 
0.073242 1.416999 0.000000 
0.073242 1.435420 0.000000 
0.024414 1.453850 0.000000 
0.024414 1.472291 0.000000 
0.073242 1.453850 0.000000 
0.073242 1.472291 0.000000 
0.024414 1.490740 0.000000 
0.024414 1.509200 0.000000 
0.073242 1.490740 0.000000 
0.073242 1.509200 0.000000 
0.024414 1.527669 0.000000 
0.024414 1.546147 0.000000 
0.073242 1.527669 0.000000 
0.073242 1.546147 0.000000 
0.024414 1.564636 0.000000 
0.024414 1.583134 0.000000 
0.073242 1.564636 0.000000 
0.073242 1.583134 0.000000 
0.024414 1.601643 0.000000 
0.024414 1.620160 0.000000 
0.073242 1.601643 0.000000 
0.073242 1.620160 0.000000 
0.024414 1.638688 0.000000 
0.024414 1.657225 0.000000 
0.073242 1.638688 0.000000 
0.073242 1.657225 0.000000 
0.024414 1.675771 0.000000 
0.024414 1.694327 0.000000 
0.073242 1.675771 0.000000 
0.073242 1.694327 0.000000 
0.024414 1.712894 0.000000 
0.024414 1.731470 0.000000 
0.073242 1.712894 0.000000 
0.073242 1.731470 0.000000 
0.024414 1.750056 0.000000 
0.024414 1.768653 0.000000 
0.073242 1.750056 0.000000 
0.073242 1.768653 0.000000 
0.024414 1.787258 0.000000 
0.024414 1.805875 0.000000 
0.073242 1.787258 0.000000 
0.073242 1.805875 0.000000 
0.024414 1.824500 0.000000 
0.024414 1.843136 0.000000 
0.073242 1.824500 0.000000 
0.073242 1.843136 0.000000 
0.024414 1.861781 0.000000 
0.024414 1.880436 0.000000 
0.073242 1.861781 0.000000 
0.073242 1.880436 0.000000 
0.024414 1.899102 0.000000 
0.024414 1.917777 0.000000 
0.073242 1.899102 0.000000 
0.073242 1.917777 0.000000 
0.024414 1.936462 0.000000 
0.024414 1.955157 0.000000 
0.073242 1.936462 0.000000 
0.073242 1.955157 0.000000 
0.024414 1.973863 0.000000 
0.024414 1.992578 0.000000 
0.073242 1.973863 0.000000 
0.073242 1.992578 0.000000 
0.024414 2.011303 0.000000 
0.024414 2.030039 0.000000 
0.073242 2.011303 0.000000 
0.073242 2.030039 0.000000 
0.024414 2.048784 0.000000 
0.024414 2.067539 0.000000 
0.073242 2.048784 0.000000 
0.073242 2.067539 0.000000 
0.024414 2.086305 0.000000 
0.024414 2.105080 0.000000 
0.073242 2.086305 0.000000 
0.073242 2.105080 0.000000 
0.024414 2.123866 0.000000 
0.024414 2.142661 0.000000 
0.073242 2.123866 0.000000 
0.073242 2.142661 0.000000 
0.024414 2.161468 0.000000 
0.024414 2.180283 0.000000 
0.073242 2.161468 0.000000 
0.073242 2.180283 0.000000 
0.024414 2.199110 0.000000 
0.024414 2.217946 0.000000 
0.073242 2.199110 0.000000 
0.073242 2.217946 0.000000 
0.024414 2.236794 0.000000 
0.024414 2.255651 0.000000 
0.073242 2.236794 0.000000 
0.073242 2.255651 0.000000 
0.024414 2.274517 0.000000 
0.024414 2.293395 0.000000 
0.073242 2.274517 0.000000 
0.073242 2.293395 0.000000 
0.024414 2.312282 0.000000 
0.024414 2.331180 0.000000 
0.073242 2.312282 0.000000 
0.073242 2.331180 0.000000 
0.024414 2.350087 0.000000 
0.024414 2.369007 0.000000 
0.073242 2.350087 0.000000 
0.073242 2.369007 0.000000 
0.024414 2.387935 0.000000 
0.024414 2.406873 0.000000 
0.073242 2.387935 0.000000 
0.073242 2.406873 0.000000 
0.024414 2.425821 0.000000 
0.024414 2.444782 0.000000 
0.073242 2.425821 0.000000 
0.073242 2.444782 0.000000 
0.024414 2.463752 0.000000 
0.024414 2.482732 0.000000 
0.073242 2.463752 0.000000 
0.073242 2.482732 0.000000 
0.024414 2.501722 0.000000 
0.024414 2.520722 0.000000 
0.073242 2.501722 0.000000 
0.073242 2.520722 0.000000 
0.024414 2.539734 0.000000 
0.024414 2.558755 0.000000 
0.073242 2.539734 0.000000 
0.073242 2.558755 0.000000 
0.024414 2.577787 0.000000 
0.024414 2.596831 0.000000 
0.073242 2.577787 0.000000 
0.073242 2.596831 0.000000 
0.024414 2.615884 0.000000 
0.024414 2.634947 0.000000 
0.073242 2.615884 0.000000 
0.073242 2.634947 0.000000 
0.024414 2.654022 0.000000 
0.024414 2.673107 0.000000 
0.073242 2.654022 0.000000 
0.073242 2.673107 0.000000 
0.024414 2.692202 0.000000 
0.024414 2.711307 0.000000 
0.073242 2.692202 0.000000 
0.073242 2.711307 0.000000 
0.024414 2.730424 0.000000 
0.024414 2.749551 0.000000 
0.073242 2.730424 0.000000 
0.073242 2.749551 0.000000 
0.024414 2.768687 0.000000 
0.024414 2.787836 0.000000 
0.073242 2.768687 0.000000 
0.073242 2.787836 0.000000 
0.024414 2.806993 0.000000 
0.024414 2.826164 0.000000 
0.073242 2.806993 0.000000 
0.073242 2.826164 0.000000 
0.024414 2.845343 0.000000 
0.024414 2.864534 0.000000 
0.073242 2.845343 0.000000 
0.073242 2.864534 0.000000 
0.024414 2.883736 0.000000 
0.024414 2.902947 0.000000 
0.073242 2.883736 0.000000 
0.073242 2.902947 0.000000 
0.024414 2.922169 0.000000 
0.024414 2.941403 0.000000 
0.073242 2.922169 0.000000 
0.073242 2.941403 0.000000 
0.024414 2.960648 0.000000 
0.024414 2.979902 0.000000 
0.073242 2.960648 0.000000 
0.073242 2.979902 0.000000 
0.024414 2.999168 0.000000 
0.024414 3.018443 0.000000 
0.073242 2.999168 0.000000 
0.073242 3.018443 0.000000 
0.024414 3.037730 0.000000 
0.024414 3.057029 0.000000 
0.073242 3.037730 0.000000 
0.073242 3.057029 0.000000 
0.024414 3.076338 0.000000 
0.024414 3.095657 0.000000 
0.073242 3.076338 0.000000 
0.073242 3.095657 0.000000 
0.024414 3.114988 0.000000 
0.024414 3.134330 0.000000 
0.073242 3.114988 0.000000 
0.073242 3.134330 0.000000 
0.024414 3.153682 0.000000 
0.024414 3.173044 0.000000 
0.073242 3.153682 0.000000 
0.073242 3.173044 0.000000 
0.024414 3.192419 0.000000 
0.024414 3.211805 0.000000 
0.073242 3.192419 0.000000 
0.073242 3.211805 0.000000 
0.024414 3.231200 0.000000 
0.024414 3.250607 0.000000 
0.073242 3.231200 0.000000 
0.073242 3.250607 0.000000 
[...]
POINT_DATA 2048
SCALARS sigma_xx FLOAT 1
LOOKUP_TABLE default
0.000000
-0.000000
0.000000
-0.000000
-0.000000
-0.000000
-0.000000
-0.000000
-0.000000
-0.000000
-0.000000
-0.000000
-0.000000
0.000000
-0.000000
0.000000
-0.000000
-0.000000
-0.000000
-0.000000
-0.000000
-0.000000
-0.000000
-0.000000
-0.000000
-0.000000
-0.000000
-0.000000
-0.000000
-0.000000
-0.000000
-0.000000
-0.000000
-0.000000
-0.000000
0.000000
0.000000
-0.000000
-0.000000
-0.000000
-0.000000
-0.000000
-0.000000
-0.000000
-0.000000
-0.000000
-0.000000
-0.000000
-0.000000
-0.000000
-0.000000
-0.000000
-0.000000
-0.000000
-0.000000
-0.000000
-0.000000
-0.000000
-0.000000
-0.000000
-0.000000
-0.000000
-0.000000
-0.000000
-0.000000
-0.000000
-0.000000
-0.000000
-0.000000
-0.000000
0.000000
-0.000000
-0.000000
-0.000000
-0.000000
-0.000000
-0.000000
-0.000000
-0.000000
-0.000000
0.000000
-0.000000
-0.000000
-0.000000
-0.000000
-0.000000
-0.000000
-0.000000
0.000000
-0.000000
-0.000000
-0.000000
-0.000000
0.000000
-0.000000
0.000000
-0.000000
-0.000000
-0.000000
-0.000000
-0.000000
-0.000000
-0.000000
-0.000000
-0.000000
-0.000000
-0.000000
-0.000000
-0.000000
-0.000000
-0.000000
-0.000000
-0.000000
-0.000000
-0.000000
-0.000000
-0.000000
-0.000000
-0.000000
-0.000000
-0.000000
-0.000000
-0.000000
-0.000000
-0.000000
-0.000000
-0.000000
-0.000000
-0.000000
-0.000000
-0.000000
-0.000000
-0.000000
-0.000000
-0.000000
-0.000000
-0.000000
-0.000000
-0.000000
-0.000000
-0.000000
-0.000000
-0.000000
-0.000000
-0.000000
-0.000000
-0.000000
-0.000000
-0.000000
-0.000000
-0.000000
-0.000000
-0.000000
-0.000000
-0.000000
-0.000000
-0.000000
-0.000000
-0.000000
-0.000000
-0.000000
-0.000000
-0.000000
-0.000000
-0.000000
-0.000000
-0.000000
-0.000000
0.000000
-0.000000
-0.000000
-0.000000
-0.000000
-0.000000
-0.000000
-0.000000
-0.000000
-0.000000
0.000000
-0.000000
-0.000000
-0.000000
-0.000000
-0.000000
-0.000000
-0.000000
-0.000000
-0.000000
-0.000000
=======
POINTS 288 double
0.520833 0.196611 0.000000 
0.520833 0.589834 0.000000 
0.520833 0.983057 0.000000 
0.520833 1.376280 0.000000 
0.520833 1.769502 0.000000 
0.520833 2.162725 0.000000 
1.562500 0.196611 0.000000 
1.562500 0.589834 0.000000 
1.562500 0.983057 0.000000 
1.562500 1.376280 0.000000 
1.562500 1.769502 0.000000 
1.562500 2.162725 0.000000 
2.604167 0.196611 0.000000 
2.604167 0.589834 0.000000 
2.604167 0.983057 0.000000 
2.604167 1.376280 0.000000 
2.604167 1.769502 0.000000 
2.604167 2.162725 0.000000 
3.645833 0.196611 0.000000 
3.645833 0.589834 0.000000 
3.645833 0.983057 0.000000 
3.645833 1.376280 0.000000 
3.645833 1.769502 0.000000 
3.645833 2.162725 0.000000 
4.687500 0.196611 0.000000 
4.687500 0.589834 0.000000 
4.687500 0.983057 0.000000 
4.687500 1.376280 0.000000 
4.687500 1.769502 0.000000 
4.687500 2.162725 0.000000 
5.729167 0.196611 0.000000 
5.729167 0.589834 0.000000 
5.729167 0.983057 0.000000 
5.729167 1.376280 0.000000 
5.729167 1.769502 0.000000 
5.729167 2.162725 0.000000 
0.520833 2.558473 0.000000 
0.520833 2.960927 0.000000 
0.520833 3.369657 0.000000 
0.520833 3.784357 0.000000 
0.520833 4.204548 0.000000 
0.520833 4.629442 0.000000 
1.562500 2.558473 0.000000 
1.562500 2.960927 0.000000 
1.562500 3.369657 0.000000 
1.562500 3.784357 0.000000 
1.562500 4.204548 0.000000 
1.562500 4.629442 0.000000 
2.604167 2.558473 0.000000 
2.604167 2.960927 0.000000 
2.604167 3.369657 0.000000 
2.604167 3.784357 0.000000 
2.604167 4.204548 0.000000 
2.604167 4.629442 0.000000 
3.645833 2.558473 0.000000 
3.645833 2.960927 0.000000 
3.645833 3.369657 0.000000 
3.645833 3.784357 0.000000 
3.645833 4.204548 0.000000 
3.645833 4.629442 0.000000 
4.687500 2.558473 0.000000 
4.687500 2.960927 0.000000 
4.687500 3.369657 0.000000 
4.687500 3.784357 0.000000 
4.687500 4.204548 0.000000 
4.687500 4.629442 0.000000 
5.729167 2.558473 0.000000 
5.729167 2.960927 0.000000 
5.729167 3.369657 0.000000 
5.729167 3.784357 0.000000 
5.729167 4.204548 0.000000 
5.729167 4.629442 0.000000 
0.520833 5.060883 0.000000 
0.520833 5.500960 0.000000 
0.520833 5.949574 0.000000 
0.520833 6.406029 0.000000 
0.520833 6.867330 0.000000 
0.520833 7.332312 0.000000 
1.562500 5.060883 0.000000 
1.562500 5.500960 0.000000 
1.562500 5.949574 0.000000 
1.562500 6.406029 0.000000 
1.562500 6.867330 0.000000 
1.562500 7.332312 0.000000 
2.604167 5.060883 0.000000 
2.604167 5.500960 0.000000 
2.604167 5.949574 0.000000 
2.604167 6.406029 0.000000 
2.604167 6.867330 0.000000 
2.604167 7.332312 0.000000 
3.645833 5.060883 0.000000 
3.645833 5.500960 0.000000 
3.645833 5.949574 0.000000 
3.645833 6.406029 0.000000 
3.645833 6.867330 0.000000 
3.645833 7.332312 0.000000 
4.687500 5.060883 0.000000 
4.687500 5.500960 0.000000 
4.687500 5.949574 0.000000 
4.687500 6.406029 0.000000 
4.687500 6.867330 0.000000 
4.687500 7.332312 0.000000 
5.729167 5.060883 0.000000 
5.729167 5.500960 0.000000 
5.729167 5.949574 0.000000 
5.729167 6.406029 0.000000 
5.729167 6.867330 0.000000 
5.729167 7.332312 0.000000 
0.520833 7.803092 0.000000 
0.520833 8.280757 0.000000 
0.520833 8.765909 0.000000 
0.520833 9.258485 0.000000 
0.520833 9.758383 0.000000 
0.520833 10.265534 0.000000 
1.562500 7.803092 0.000000 
1.562500 8.280757 0.000000 
1.562500 8.765909 0.000000 
1.562500 9.258485 0.000000 
1.562500 9.758383 0.000000 
1.562500 10.265534 0.000000 
2.604167 7.803092 0.000000 
2.604167 8.280757 0.000000 
2.604167 8.765909 0.000000 
2.604167 9.258485 0.000000 
2.604167 9.758383 0.000000 
2.604167 10.265534 0.000000 
3.645833 7.803092 0.000000 
3.645833 8.280757 0.000000 
3.645833 8.765909 0.000000 
3.645833 9.258485 0.000000 
3.645833 9.758383 0.000000 
3.645833 10.265534 0.000000 
4.687500 7.803092 0.000000 
4.687500 8.280757 0.000000 
4.687500 8.765909 0.000000 
4.687500 9.258485 0.000000 
4.687500 9.758383 0.000000 
4.687500 10.265534 0.000000 
5.729167 7.803092 0.000000 
5.729167 8.280757 0.000000 
5.729167 8.765909 0.000000 
5.729167 9.258485 0.000000 
5.729167 9.758383 0.000000 
5.729167 10.265534 0.000000 
0.520833 10.782187 0.000000 
0.520833 11.309546 0.000000 
0.520833 11.848996 0.000000 
0.520833 12.399620 0.000000 
0.520833 12.960334 0.000000 
0.520833 13.529266 0.000000 
1.562500 10.782187 0.000000 
1.562500 11.309546 0.000000 
1.562500 11.848996 0.000000 
1.562500 12.399620 0.000000 
1.562500 12.960334 0.000000 
1.562500 13.529266 0.000000 
2.604167 10.782187 0.000000 
2.604167 11.309546 0.000000 
2.604167 11.848996 0.000000 
2.604167 12.399620 0.000000 
2.604167 12.960334 0.000000 
2.604167 13.529266 0.000000 
3.645833 10.782187 0.000000 
3.645833 11.309546 0.000000 
3.645833 11.848996 0.000000 
3.645833 12.399620 0.000000 
3.645833 12.960334 0.000000 
3.645833 13.529266 0.000000 
4.687500 10.782187 0.000000 
4.687500 11.309546 0.000000 
4.687500 11.848996 0.000000 
4.687500 12.399620 0.000000 
4.687500 12.960334 0.000000 
4.687500 13.529266 0.000000 
5.729167 10.782187 0.000000 
5.729167 11.309546 0.000000 
5.729167 11.848996 0.000000 
5.729167 12.399620 0.000000 
5.729167 12.960334 0.000000 
5.729167 13.529266 0.000000 
0.520833 14.108794 0.000000 
0.520833 14.700093 0.000000 
0.520833 15.304156 0.000000 
0.520833 15.921357 0.000000 
0.520833 16.554375 0.000000 
0.520833 17.201460 0.000000 
1.562500 14.108794 0.000000 
1.562500 14.700093 0.000000 
1.562500 15.304156 0.000000 
1.562500 15.921357 0.000000 
1.562500 16.554375 0.000000 
1.562500 17.201460 0.000000 
2.604167 14.108794 0.000000 
2.604167 14.700093 0.000000 
2.604167 15.304156 0.000000 
2.604167 15.921357 0.000000 
2.604167 16.554375 0.000000 
2.604167 17.201460 0.000000 
3.645833 14.108794 0.000000 
3.645833 14.700093 0.000000 
3.645833 15.304156 0.000000 
3.645833 15.921357 0.000000 
3.645833 16.554375 0.000000 
3.645833 17.201460 0.000000 
4.687500 14.108794 0.000000 
4.687500 14.700093 0.000000 
4.687500 15.304156 0.000000 
4.687500 15.921357 0.000000 
4.687500 16.554375 0.000000 
4.687500 17.201460 0.000000 
5.729167 14.108794 0.000000 
5.729167 14.700093 0.000000 
5.729167 15.304156 0.000000 
5.729167 15.921357 0.000000 
5.729167 16.554375 0.000000 
5.729167 17.201460 0.000000 
0.520833 17.867851 0.000000 
0.520833 18.556377 0.000000 
0.520833 19.264194 0.000000 
0.520833 19.989826 0.000000 
0.520833 20.734417 0.000000 
0.520833 21.498529 0.000000 
1.562500 17.867851 0.000000 
1.562500 18.556377 0.000000 
1.562500 19.264194 0.000000 
1.562500 19.989826 0.000000 
1.562500 20.734417 0.000000 
1.562500 21.498529 0.000000 
2.604167 17.867851 0.000000 
2.604167 18.556377 0.000000 
2.604167 19.264194 0.000000 
2.604167 19.989826 0.000000 
2.604167 20.734417 0.000000 
2.604167 21.498529 0.000000 
3.645833 17.867851 0.000000 
3.645833 18.556377 0.000000 
3.645833 19.264194 0.000000 
3.645833 19.989826 0.000000 
3.645833 20.734417 0.000000 
3.645833 21.498529 0.000000 
4.687500 17.867851 0.000000 
4.687500 18.556377 0.000000 
4.687500 19.264194 0.000000 
4.687500 19.989826 0.000000 
4.687500 20.734417 0.000000 
4.687500 21.498529 0.000000 
5.729167 17.867851 0.000000 
5.729167 18.556377 0.000000 
5.729167 19.264194 0.000000 
5.729167 19.989826 0.000000 
5.729167 20.734417 0.000000 
5.729167 21.498529 0.000000 
0.520833 22.290480 0.000000 
0.520833 23.115358 0.000000 
0.520833 23.975860 0.000000 
0.520833 24.879821 0.000000 
0.520833 25.820118 0.000000 
0.520833 26.794618 0.000000 
1.562500 22.290480 0.000000 
1.562500 23.115358 0.000000 
1.562500 23.975860 0.000000 
1.562500 24.879821 0.000000 
1.562500 25.820118 0.000000 
1.562500 26.794618 0.000000 
2.604167 22.290480 0.000000 
2.604167 23.115358 0.000000 
2.604167 23.975860 0.000000 
2.604167 24.879821 0.000000 
2.604167 25.820118 0.000000 
2.604167 26.794618 0.000000 
3.645833 22.290480 0.000000 
3.645833 23.115358 0.000000 
3.645833 23.975860 0.000000 
3.645833 24.879821 0.000000 
3.645833 25.820118 0.000000 
3.645833 26.794618 0.000000 
4.687500 22.290480 0.000000 
4.687500 23.115358 0.000000 
4.687500 23.975860 0.000000 
4.687500 24.879821 0.000000 
4.687500 25.820118 0.000000 
4.687500 26.794618 0.000000 
5.729167 22.290480 0.000000 
5.729167 23.115358 0.000000 
5.729167 23.975860 0.000000 
5.729167 24.879821 0.000000 
5.729167 25.820118 0.000000 
5.729167 26.794618 0.000000 

POINT_DATA 288
SCALARS sigma_xx FLOAT 1
LOOKUP_TABLE default
0.000000
0.000000
0.000000
0.000000
0.000000
0.000000
0.000000
0.000000
0.000000
0.000000
0.000000
0.000000
0.000000
0.000000
0.000000
0.000000
0.000000
0.000000
0.000000
0.000000
0.000000
0.000000
0.000000
0.000000
0.000000
0.000000
0.000000
0.000000
0.000000
0.000000
0.000000
0.000000
0.000000
0.000000
0.000000
0.000000
0.000000
>>>>>>> Stashed changes
-0.000000
-0.000000
-0.000000
-0.000000
-0.000000
-0.000000
-0.000000
-0.000000
-0.000000
-0.000000
-0.000000
-0.000000
-0.000000
-0.000000
-0.000000
-0.000000
-0.000000
-0.000000
-0.000000
-0.000000
-0.000000
-0.000000
-0.000000
-0.000000
-0.000000
-0.000000
-0.000000
-0.000000
-0.000000
-0.000000
-0.000000
-0.000000
-0.000000
0.000000
-0.000000
<<<<<<< Updated upstream
-0.000000
-0.000000
-0.000000
-0.000000
-0.000000
-0.000000
-0.000000
-0.000000
-0.000000
0.000000
-0.000000
0.000000
-0.000000
=======
0.000000
0.000000
0.000000
-0.000000
0.000000
>>>>>>> Stashed changes
-0.000000
-0.000000
-0.000000
-0.000000
-0.000000
-0.000000
-0.000000
-0.000000
-0.000000
-0.000000
-0.000000
-0.000000
-0.000000
-0.000000
-0.000000
-0.000000
-0.000000
-0.000000
-0.000000
-0.000000
-0.000000
-0.000000
-0.000000
-0.000000
-0.000000
-0.000000
-0.000000
-0.000000
-0.000000
-0.000000
-0.000000
-0.000000
-0.000000
-0.000000
-0.000000
-0.000000
-0.000000
-0.000000
-0.000000
-0.000000
<<<<<<< Updated upstream
-0.000000
=======
0.000000
-0.000000
0.000000
>>>>>>> Stashed changes
-0.000000
-0.000000
-0.000000
-0.000000
-0.000000
<<<<<<< Updated upstream
-0.000000
-0.000000
-0.000000
-0.000000
-0.000000
-0.000000
-0.000000
-0.000000
-0.000000
-0.000000
-0.000000
-0.000000
=======
0.000000
-0.000000
-0.000000
-0.000000
0.000000
-0.000000
0.000000
-0.000000
-0.000000
-0.000000
0.000000
-0.000000
0.000000
-0.000000
-0.000000
-0.000000
0.000000
-0.000000
0.000000
>>>>>>> Stashed changes
-0.000000
-0.000000
-0.000000
-0.000000
-0.000000
-0.000000
<<<<<<< Updated upstream
-0.000000
-0.000000
-0.000000
-0.000000
-0.000000
-0.000000
-0.000000
-0.000000
-0.000000
-0.000000
-0.000000
-0.000000
-0.000000
-0.000000
-0.000000
-0.000000
-0.000000
-0.000000
-0.000000
-0.000000
-0.000000
-0.000000
-0.000000
-0.000000
-0.000000
-0.000000
-0.000000
-0.000000
-0.000000
-0.000000
-0.000000
-0.000000
-0.000000
-0.000000
-0.000000
-0.000000
-0.000000
-0.000000
-0.000000
-0.000000
-0.000000
-0.000000
-0.000000
-0.000000
-0.000000
-0.000000
-0.000000
-0.000000
-0.000000
-0.000000
-0.000000
-0.000000
-0.000000
-0.000000
-0.000000
-0.000000
-0.000000
-0.000000
-0.000000
-0.000000
-0.000000
-0.000000
-0.000000
-0.000000
-0.000000
-0.000000
-0.000000
-0.000000
-0.000000
-0.000000
-0.000000
-0.000000
-0.000000
-0.000000
-0.000000
-0.000000
-0.000000
-0.000000
-0.000000
-0.000000
-0.000000
-0.000000
-0.000000
-0.000000
-0.000000
-0.000000
-0.000000
-0.000000
-0.000000
-0.000000
-0.000000
-0.000000
-0.000000
-0.000000
0.000000
-0.000000
-0.000000
-0.000000
-0.000000
-0.000000
-0.000000
-0.000000
-0.000000
-0.000000
-0.000000
-0.000000
-0.000000
-0.000000
-0.000000
-0.000000
-0.000000
-0.000000
-0.000000
-0.000000
-0.000000
-0.000000
-0.000000
-0.000000
-0.000000
-0.000000
-0.000000
-0.000000
-0.000000
-0.000000
-0.000000
-0.000000
-0.000000
-0.000000
-0.000000
-0.000000
-0.000000
-0.000000
-0.000000
-0.000000
-0.000000
-0.000000
-0.000000
-0.000000
-0.000000
-0.000000
0.000000
-0.000000
-0.000000
-0.000000
-0.000000
-0.000000
-0.000000
-0.000000
-0.000000
-0.000000
-0.000000
-0.000000
-0.000000
-0.000000
-0.000000
-0.000000
-0.000000
-0.000000
-0.000000
-0.000000
-0.000000
-0.000000
-0.000000
-0.000000
-0.000000
-0.000000
-0.000000
-0.000000
-0.000000
-0.000000
-0.000000
-0.000000
-0.000000
-0.000000
-0.000000
-0.000000
-0.000000
-0.000000
-0.000000
-0.000000
-0.000000
-0.000000
-0.000000
-0.000000
-0.000000
-0.000000
-0.000000
-0.000000
-0.000000
-0.000000
-0.000000
-0.000000
-0.000000
-0.000000
-0.000000
-0.000000
-0.000000
-0.000000
-0.000000
-0.000000
-0.000000
-0.000000
-0.000000
-0.000000
-0.000000
-0.000000
-0.000000
-0.000000
-0.000000
-0.000000
-0.000000
-0.000000
-0.000000
-0.000000
-0.000000
-0.000000
-0.000000
-0.000000
-0.000000
-0.000000
-0.000000
-0.000000
-0.000000
-0.000000
-0.000000
-0.000000
-0.000000
-0.000000
-0.000000
-0.000000
-0.000000
-0.000000
-0.000000
-0.000000
-0.000000
-0.000000
-0.000000
-0.000000
-0.000000
-0.000000
-0.000000
-0.000000
-0.000000
-0.000000
-0.000000
-0.000000
-0.000000
-0.000000
-0.000000
-0.000000
-0.000000
-0.000000
-0.000000
-0.000000
-0.000000
-0.000000
-0.000000
-0.000000
-0.000000
-0.000000
-0.000000
-0.000000
-0.000000
-0.000000
-0.000000
-0.000000
-0.000000
-0.000000
-0.000000
-0.000000
-0.000000
-0.000000
-0.000000
-0.000000
-0.000000
-0.000000
-0.000000
-0.000000
-0.000000
-0.000000
-0.000000
-0.000000
-0.000000
-0.000000
-0.000000
-0.000000
-0.000000
-0.000000
-0.000000
-0.000000
-0.000000
-0.000000
-0.000000
-0.000000
-0.000000
-0.000000
-0.000000
-0.000000
-0.000000
-0.000000
-0.000000
-0.000000
-0.000000
-0.000000
-0.000000
-0.000000
-0.000000
-0.000000
-0.000000
-0.000000
-0.000000
-0.000000
-0.000000
-0.000000
-0.000000
-0.000000
-0.000000
-0.000000
-0.000000
-0.000000
-0.000000
-0.000000
-0.000000
-0.000000
-0.000000
-0.000000
-0.000000
-0.000000
-0.000000
-0.000000
-0.000000
-0.000000
-0.000000
-0.000000
-0.000000
-0.000000
-0.000000
-0.000000
0.000000
-0.000000
-0.000000
-0.000000
-0.000000
-0.000000
-0.000000
-0.000000
-0.000000
-0.000000
-0.000000
-0.000000
-0.000000
-0.000000
-0.000000
-0.000000
-0.000000
-0.000000
-0.000000
-0.000000
-0.000000
-0.000000
-0.000000
-0.000000
-0.000000
-0.000000
-0.000000
-0.000000
-0.000000
-0.000000
-0.000000
-0.000000
-0.000000
-0.000000
-0.000000
-0.000000
-0.000000
-0.000000
-0.000000
-0.000000
-0.000000
-0.000000
-0.000000
-0.000000
-0.000000
-0.000000
-0.000000
-0.000000
-0.000000
-0.000000
-0.000000
-0.000000
-0.000000
-0.000000
-0.000000
-0.000000
-0.000000
-0.000000
-0.000000
-0.000000
-0.000000
-0.000000
-0.000000
-0.000000
-0.000000
-0.000000
-0.000000
-0.000000
-0.000000
-0.000000
-0.000000
-0.000000
-0.000000
-0.000000
-0.000000
-0.000000
-0.000000
-0.000000
-0.000000
-0.000000
-0.000000
-0.000000
-0.000000
-0.000000
-0.000000
-0.000000
-0.000000
-0.000000
-0.000000
-0.000000
-0.000000
-0.000000
-0.000000
-0.000000
-0.000000
-0.000000
-0.000000
-0.000000
-0.000000
-0.000000
-0.000000
-0.000000
-0.000000
-0.000000
-0.000000
-0.000000
-0.000000
-0.000000
-0.000000
-0.000000
-0.000000
-0.000000
-0.000000
-0.000000
-0.000000
-0.000000
-0.000000
-0.000000
-0.000000
-0.000000
-0.000000
-0.000000
-0.000000
-0.000000
-0.000000
-0.000000
-0.000000
-0.000000
-0.000000
-0.000000
-0.000000
-0.000000
-0.000000
-0.000000
-0.000000
-0.000000
-0.000000
-0.000000
-0.000000
-0.000000
-0.000000
-0.000000
-0.000000
-0.000000
-0.000000
-0.000000
-0.000000
-0.000000
-0.000000
-0.000000
-0.000000
-0.000000
-0.000000
-0.000000
-0.000000
-0.000000
-0.000000
-0.000000
-0.000000
-0.000000
-0.000000
-0.000000
-0.000000
-0.000000
-0.000000
-0.000000
-0.000000
-0.000000
-0.000000
-0.000000
-0.000000
-0.000000
-0.000000
-0.000000
-0.000000
-0.000000
-0.000000
-0.000000
-0.000000
-0.000000
-0.000000
-0.000000
-0.000000
-0.000000
-0.000000
-0.000000
-0.000000
-0.000000
-0.000000
-0.000000
-0.000000
0.000000
-0.000000
-0.000000
-0.000000
-0.000000
-0.000000
-0.000000
-0.000000
0.000000
-0.000000
-0.000000
-0.000000
-0.000000
-0.000000
-0.000000
-0.000000
-0.000000
-0.000000
-0.000000
-0.000000
-0.000000
-0.000000
-0.000000
-0.000000
-0.000000
-0.000000
-0.000000
-0.000000
-0.000000
-0.000000
-0.000000
-0.000000
-0.000000
-0.000000
-0.000000
-0.000000
-0.000000
-0.000000
-0.000000
-0.000000
-0.000000
-0.000000
-0.000000
-0.000000
-0.000000
-0.000000
-0.000000
-0.000000
-0.000000
-0.000000
-0.000000
-0.000000
-0.000000
-0.000000
-0.000000
-0.000000
-0.000000
-0.000000
-0.000000
-0.000000
-0.000000
-0.000000
-0.000000
-0.000000
-0.000000
-0.000000
-0.000000
-0.000000
-0.000000
-0.000000
-0.000000
-0.000000
-0.000000
-0.000000
-0.000000
-0.000000
-0.000000
-0.000000
-0.000000
-0.000000
-0.000000
-0.000000
-0.000000
-0.000000
-0.000000
-0.000000
-0.000000
-0.000000
-0.000000
-0.000000
-0.000000
-0.000000
-0.000000
-0.000000
-0.000000
-0.000000
-0.000000
-0.000000
-0.000000
-0.000000
-0.000000
-0.000000
-0.000000
-0.000000
-0.000000
-0.000000
-0.000000
-0.000000
-0.000000
-0.000000
-0.000000
-0.000000
-0.000000
-0.000000
-0.000000
-0.000000
-0.000000
-0.000000
-0.000000
-0.000000
-0.000000
-0.000000
-0.000000
-0.000000
-0.000000
-0.000000
-0.000000
-0.000000
-0.000000
-0.000000
-0.000000
-0.000000
-0.000000
-0.000000
-0.000000
-0.000000
-0.000000
-0.000000
-0.000000
-0.000000
-0.000000
-0.000000
-0.000000
-0.000000
-0.000000
-0.000000
-0.000000
-0.000000
-0.000000
-0.000000
-0.000000
-0.000000
-0.000000
-0.000000
-0.000000
-0.000000
-0.000000
-0.000000
-0.000000
-0.000000
0.000000
-0.000000
-0.000000
-0.000000
-0.000000
-0.000000
-0.000000
-0.000000
-0.000000
-0.000000
-0.000000
-0.000000
-0.000000
-0.000000
-0.000000
-0.000000
-0.000000
-0.000000
-0.000000
-0.000000
-0.000000
-0.000000
-0.000000
-0.000000
-0.000000
-0.000000
-0.000000
-0.000000
-0.000000
-0.000000
-0.000000
-0.000000
-0.000000
-0.000000
-0.000000
-0.000000
-0.000000
-0.000000
-0.000000
-0.000000
-0.000000
-0.000000
-0.000000
-0.000000
-0.000000
-0.000000
-0.000000
-0.000000
-0.000000
-0.000000
-0.000000
-0.000000
-0.000000
-0.000000
-0.000000
-0.000000
-0.000000
-0.000000
-0.000000
-0.000000
-0.000000
-0.000000
-0.000000
-0.000000
-0.000000
-0.000000
-0.000000
-0.000000
-0.000000
-0.000000
-0.000000
-0.000000
-0.000000
-0.000000
-0.000000
-0.000000
-0.000000
-0.000000
-0.000000
-0.000000
-0.000000
-0.000000
-0.000000
-0.000000
-0.000000
-0.000000
-0.000000
0.000000
-0.000000
-0.000000
-0.000000
-0.000000
-0.000000
-0.000000