# vtk DataFile Version 2.0
MATLAB generated vtk file, WMC
ASCII
DATASET UNSTRUCTURED_GRID
<<<<<<< Updated upstream
POINTS 2048 double
0.024414 0.007550 0.000000 
0.024414 0.022650 0.000000 
0.073242 0.007550 0.000000 
0.073242 0.022650 0.000000 
0.024414 0.037753 0.000000 
0.024414 0.052864 0.000000 
0.073242 0.037753 0.000000 
0.073242 0.052864 0.000000 
0.024414 0.067983 0.000000 
0.024414 0.083111 0.000000 
0.073242 0.067983 0.000000 
0.073242 0.083111 0.000000 
0.024414 0.098249 0.000000 
0.024414 0.113396 0.000000 
0.073242 0.098249 0.000000 
0.073242 0.113396 0.000000 
0.024414 0.128549 0.000000 
0.024414 0.143710 0.000000 
0.073242 0.128549 0.000000 
0.073242 0.143710 0.000000 
0.024414 0.158879 0.000000 
0.024414 0.174056 0.000000 
0.073242 0.158879 0.000000 
0.073242 0.174056 0.000000 
0.024414 0.189242 0.000000 
0.024414 0.204436 0.000000 
0.073242 0.189242 0.000000 
0.073242 0.204436 0.000000 
0.024414 0.219638 0.000000 
0.024414 0.234848 0.000000 
0.073242 0.219638 0.000000 
0.073242 0.234848 0.000000 
0.024414 0.250066 0.000000 
0.024414 0.265292 0.000000 
0.073242 0.250066 0.000000 
0.073242 0.265292 0.000000 
0.024414 0.280527 0.000000 
0.024414 0.295769 0.000000 
0.073242 0.280527 0.000000 
0.073242 0.295769 0.000000 
0.024414 0.311020 0.000000 
0.024414 0.326278 0.000000 
0.073242 0.311020 0.000000 
0.073242 0.326278 0.000000 
0.024414 0.341545 0.000000 
0.024414 0.356820 0.000000 
0.073242 0.341545 0.000000 
0.073242 0.356820 0.000000 
0.024414 0.372104 0.000000 
0.024414 0.387395 0.000000 
0.073242 0.372104 0.000000 
0.073242 0.387395 0.000000 
0.024414 0.402695 0.000000 
0.024414 0.418004 0.000000 
0.073242 0.402695 0.000000 
0.073242 0.418004 0.000000 
0.024414 0.433319 0.000000 
0.024414 0.448644 0.000000 
0.073242 0.433319 0.000000 
0.073242 0.448644 0.000000 
0.024414 0.463977 0.000000 
0.024414 0.479318 0.000000 
0.073242 0.463977 0.000000 
0.073242 0.479318 0.000000 
0.024414 0.494668 0.000000 
0.024414 0.510026 0.000000 
0.073242 0.494668 0.000000 
0.073242 0.510026 0.000000 
0.024414 0.525392 0.000000 
0.024414 0.540766 0.000000 
0.073242 0.525392 0.000000 
0.073242 0.540766 0.000000 
0.024414 0.556149 0.000000 
0.024414 0.571540 0.000000 
0.073242 0.556149 0.000000 
0.073242 0.571540 0.000000 
0.024414 0.586940 0.000000 
0.024414 0.602348 0.000000 
0.073242 0.586940 0.000000 
0.073242 0.602348 0.000000 
0.024414 0.617764 0.000000 
0.024414 0.633189 0.000000 
0.073242 0.617764 0.000000 
0.073242 0.633189 0.000000 
0.024414 0.648621 0.000000 
0.024414 0.664063 0.000000 
0.073242 0.648621 0.000000 
0.073242 0.664063 0.000000 
0.024414 0.679513 0.000000 
0.024414 0.694971 0.000000 
0.073242 0.679513 0.000000 
0.073242 0.694971 0.000000 
0.024414 0.710438 0.000000 
0.024414 0.725913 0.000000 
0.073242 0.710438 0.000000 
0.073242 0.725913 0.000000 
0.024414 0.741396 0.000000 
0.024414 0.756889 0.000000 
0.073242 0.741396 0.000000 
0.073242 0.756889 0.000000 
0.024414 0.772389 0.000000 
0.024414 0.787899 0.000000 
0.073242 0.772389 0.000000 
0.073242 0.787899 0.000000 
0.024414 0.803416 0.000000 
0.024414 0.818942 0.000000 
0.073242 0.803416 0.000000 
0.073242 0.818942 0.000000 
0.024414 0.834477 0.000000 
0.024414 0.850021 0.000000 
0.073242 0.834477 0.000000 
0.073242 0.850021 0.000000 
0.024414 0.865572 0.000000 
0.024414 0.881133 0.000000 
0.073242 0.865572 0.000000 
0.073242 0.881133 0.000000 
0.024414 0.896702 0.000000 
0.024414 0.912279 0.000000 
0.073242 0.896702 0.000000 
0.073242 0.912279 0.000000 
0.024414 0.927866 0.000000 
0.024414 0.943461 0.000000 
0.073242 0.927866 0.000000 
0.073242 0.943461 0.000000 
0.024414 0.959064 0.000000 
0.024414 0.974677 0.000000 
0.073242 0.959064 0.000000 
0.073242 0.974677 0.000000 
0.024414 0.990298 0.000000 
0.024414 1.005927 0.000000 
0.073242 0.990298 0.000000 
0.073242 1.005927 0.000000 
0.024414 1.021566 0.000000 
0.024414 1.037212 0.000000 
0.073242 1.021566 0.000000 
0.073242 1.037212 0.000000 
0.024414 1.052868 0.000000 
0.024414 1.068532 0.000000 
0.073242 1.052868 0.000000 
0.073242 1.068532 0.000000 
0.024414 1.084205 0.000000 
0.024414 1.099888 0.000000 
0.073242 1.084205 0.000000 
0.073242 1.099888 0.000000 
0.024414 1.115579 0.000000 
0.024414 1.131278 0.000000 
0.073242 1.115579 0.000000 
0.073242 1.131278 0.000000 
0.024414 1.146986 0.000000 
0.024414 1.162703 0.000000 
0.073242 1.146986 0.000000 
0.073242 1.162703 0.000000 
0.024414 1.178429 0.000000 
0.024414 1.194163 0.000000 
0.073242 1.178429 0.000000 
0.073242 1.194163 0.000000 
0.024414 1.209906 0.000000 
0.024414 1.225659 0.000000 
0.073242 1.209906 0.000000 
0.073242 1.225659 0.000000 
0.024414 1.241419 0.000000 
0.024414 1.257189 0.000000 
0.073242 1.241419 0.000000 
0.073242 1.257189 0.000000 
0.024414 1.272968 0.000000 
0.024414 1.288756 0.000000 
0.073242 1.272968 0.000000 
0.073242 1.288756 0.000000 
0.024414 1.304553 0.000000 
0.024414 1.320358 0.000000 
0.073242 1.304553 0.000000 
0.073242 1.320358 0.000000 
0.024414 1.336172 0.000000 
0.024414 1.351996 0.000000 
0.073242 1.336172 0.000000 
0.073242 1.351996 0.000000 
0.024414 1.367829 0.000000 
0.024414 1.383669 0.000000 
0.073242 1.367829 0.000000 
0.073242 1.383669 0.000000 
0.024414 1.399520 0.000000 
0.024414 1.415379 0.000000 
0.073242 1.399520 0.000000 
0.073242 1.415379 0.000000 
0.024414 1.431247 0.000000 
0.024414 1.447124 0.000000 
0.073242 1.431247 0.000000 
0.073242 1.447124 0.000000 
0.024414 1.463011 0.000000 
0.024414 1.478906 0.000000 
0.073242 1.463011 0.000000 
0.073242 1.478906 0.000000 
0.024414 1.494811 0.000000 
0.024414 1.510725 0.000000 
0.073242 1.494811 0.000000 
0.073242 1.510725 0.000000 
0.024414 1.526646 0.000000 
0.024414 1.542578 0.000000 
0.073242 1.526646 0.000000 
0.073242 1.542578 0.000000 
0.024414 1.558519 0.000000 
0.024414 1.574470 0.000000 
0.073242 1.558519 0.000000 
0.073242 1.574470 0.000000 
0.024414 1.590428 0.000000 
0.024414 1.606396 0.000000 
0.073242 1.590428 0.000000 
0.073242 1.606396 0.000000 
0.024414 1.622374 0.000000 
0.024414 1.638360 0.000000 
0.073242 1.622374 0.000000 
0.073242 1.638360 0.000000 
0.024414 1.654355 0.000000 
0.024414 1.670360 0.000000 
0.073242 1.654355 0.000000 
0.073242 1.670360 0.000000 
0.024414 1.686375 0.000000 
0.024414 1.702398 0.000000 
0.073242 1.686375 0.000000 
0.073242 1.702398 0.000000 
0.024414 1.718430 0.000000 
0.024414 1.734472 0.000000 
0.073242 1.718430 0.000000 
0.073242 1.734472 0.000000 
0.024414 1.750524 0.000000 
0.024414 1.766584 0.000000 
0.073242 1.750524 0.000000 
0.073242 1.766584 0.000000 
0.024414 1.782653 0.000000 
0.024414 1.798733 0.000000 
0.073242 1.782653 0.000000 
0.073242 1.798733 0.000000 
0.024414 1.814821 0.000000 
0.024414 1.830918 0.000000 
0.073242 1.814821 0.000000 
0.073242 1.830918 0.000000 
0.024414 1.847026 0.000000 
0.024414 1.863142 0.000000 
0.073242 1.847026 0.000000 
0.073242 1.863142 0.000000 
0.024414 1.879267 0.000000 
0.024414 1.895402 0.000000 
0.073242 1.879267 0.000000 
0.073242 1.895402 0.000000 
0.024414 1.911546 0.000000 
0.024414 1.927700 0.000000 
0.073242 1.911546 0.000000 
0.073242 1.927700 0.000000 
0.024414 1.943863 0.000000 
0.024414 1.960036 0.000000 
0.073242 1.943863 0.000000 
0.073242 1.960036 0.000000 
0.024414 1.976218 0.000000 
0.024414 1.992410 0.000000 
0.073242 1.976218 0.000000 
0.073242 1.992410 0.000000 
0.024414 2.008611 0.000000 
0.024414 2.024822 0.000000 
0.073242 2.008611 0.000000 
0.073242 2.024822 0.000000 
0.024414 2.041042 0.000000 
0.024414 2.057272 0.000000 
0.073242 2.041042 0.000000 
0.073242 2.057272 0.000000 
0.024414 2.073511 0.000000 
0.024414 2.089760 0.000000 
0.073242 2.073511 0.000000 
0.073242 2.089760 0.000000 
0.024414 2.106018 0.000000 
0.024414 2.122285 0.000000 
0.073242 2.106018 0.000000 
0.073242 2.122285 0.000000 
0.024414 2.138563 0.000000 
0.024414 2.154849 0.000000 
0.073242 2.138563 0.000000 
0.073242 2.154849 0.000000 
0.024414 2.171146 0.000000 
0.024414 2.187452 0.000000 
0.073242 2.171146 0.000000 
0.073242 2.187452 0.000000 
0.024414 2.203768 0.000000 
0.024414 2.220095 0.000000 
0.073242 2.203768 0.000000 
0.073242 2.220095 0.000000 
0.024414 2.236430 0.000000 
0.024414 2.252774 0.000000 
0.073242 2.236430 0.000000 
0.073242 2.252774 0.000000 
0.024414 2.269130 0.000000 
0.024414 2.285493 0.000000 
0.073242 2.269130 0.000000 
0.073242 2.285493 0.000000 
0.024414 2.301868 0.000000 
0.024414 2.318251 0.000000 
0.073242 2.301868 0.000000 
0.073242 2.318251 0.000000 
0.024414 2.334645 0.000000 
0.024414 2.351049 0.000000 
0.073242 2.334645 0.000000 
0.073242 2.351049 0.000000 
0.024414 2.367462 0.000000 
0.024414 2.383885 0.000000 
0.073242 2.367462 0.000000 
0.073242 2.383885 0.000000 
0.024414 2.400317 0.000000 
0.024414 2.416760 0.000000 
0.073242 2.400317 0.000000 
0.073242 2.416760 0.000000 
0.024414 2.433212 0.000000 
0.024414 2.449674 0.000000 
0.073242 2.433212 0.000000 
0.073242 2.449674 0.000000 
0.024414 2.466147 0.000000 
0.024414 2.482629 0.000000 
0.073242 2.466147 0.000000 
0.073242 2.482629 0.000000 
0.024414 2.499120 0.000000 
0.024414 2.515622 0.000000 
0.073242 2.499120 0.000000 
0.073242 2.515622 0.000000 
0.024414 2.532134 0.000000 
0.024414 2.548655 0.000000 
0.073242 2.532134 0.000000 
0.073242 2.548655 0.000000 
0.024414 2.565187 0.000000 
0.024414 2.581728 0.000000 
0.073242 2.565187 0.000000 
0.073242 2.581728 0.000000 
0.024414 2.598280 0.000000 
0.024414 2.614843 0.000000 
0.073242 2.598280 0.000000 
0.073242 2.614843 0.000000 
0.024414 2.631413 0.000000 
0.024414 2.647995 0.000000 
0.073242 2.631413 0.000000 
0.073242 2.647995 0.000000 
0.024414 2.664588 0.000000 
0.024414 2.681189 0.000000 
0.073242 2.664588 0.000000 
0.073242 2.681189 0.000000 
0.024414 2.697801 0.000000 
0.024414 2.714423 0.000000 
0.073242 2.697801 0.000000 
0.073242 2.714423 0.000000 
0.024414 2.731057 0.000000 
0.024414 2.747699 0.000000 
0.073242 2.731057 0.000000 
0.073242 2.747699 0.000000 
0.024414 2.764350 0.000000 
0.024414 2.781013 0.000000 
0.073242 2.764350 0.000000 
0.073242 2.781013 0.000000 
[...]
POINT_DATA 2048
SCALARS sigma_xx FLOAT 1
LOOKUP_TABLE default
0.000000
-0.000000
0.000000
-0.000000
-0.000000
-0.000000
-0.000000
-0.000000
-0.000000
-0.000000
-0.000000
-0.000000
-0.000000
-0.000000
-0.000000
=======
POINTS 288 double
0.520833 0.168580 0.000000 
0.520833 0.505739 0.000000 
0.520833 0.842899 0.000000 
0.520833 1.180059 0.000000 
0.520833 1.517218 0.000000 
0.520833 1.854378 0.000000 
1.562500 0.168580 0.000000 
1.562500 0.505739 0.000000 
1.562500 0.842899 0.000000 
1.562500 1.180059 0.000000 
1.562500 1.517218 0.000000 
1.562500 1.854378 0.000000 
2.604167 0.168580 0.000000 
2.604167 0.505739 0.000000 
2.604167 0.842899 0.000000 
2.604167 1.180059 0.000000 
2.604167 1.517218 0.000000 
2.604167 1.854378 0.000000 
3.645833 0.168580 0.000000 
3.645833 0.505739 0.000000 
3.645833 0.842899 0.000000 
3.645833 1.180059 0.000000 
3.645833 1.517218 0.000000 
3.645833 1.854378 0.000000 
4.687500 0.168580 0.000000 
4.687500 0.505739 0.000000 
4.687500 0.842899 0.000000 
4.687500 1.180059 0.000000 
4.687500 1.517218 0.000000 
4.687500 1.854378 0.000000 
5.729167 0.168580 0.000000 
5.729167 0.505739 0.000000 
5.729167 0.842899 0.000000 
5.729167 1.180059 0.000000 
5.729167 1.517218 0.000000 
5.729167 1.854378 0.000000 
0.520833 2.193702 0.000000 
0.520833 2.538777 0.000000 
0.520833 2.889233 0.000000 
0.520833 3.244808 0.000000 
0.520833 3.605091 0.000000 
0.520833 3.969406 0.000000 
1.562500 2.193702 0.000000 
1.562500 2.538777 0.000000 
1.562500 2.889233 0.000000 
1.562500 3.244808 0.000000 
1.562500 3.605091 0.000000 
1.562500 3.969406 0.000000 
2.604167 2.193702 0.000000 
2.604167 2.538777 0.000000 
2.604167 2.889233 0.000000 
2.604167 3.244808 0.000000 
2.604167 3.605091 0.000000 
2.604167 3.969406 0.000000 
3.645833 2.193702 0.000000 
3.645833 2.538777 0.000000 
3.645833 2.889233 0.000000 
3.645833 3.244808 0.000000 
3.645833 3.605091 0.000000 
3.645833 3.969406 0.000000 
4.687500 2.193702 0.000000 
4.687500 2.538777 0.000000 
4.687500 2.889233 0.000000 
4.687500 3.244808 0.000000 
4.687500 3.605091 0.000000 
4.687500 3.969406 0.000000 
5.729167 2.193702 0.000000 
5.729167 2.538777 0.000000 
5.729167 2.889233 0.000000 
5.729167 3.244808 0.000000 
5.729167 3.605091 0.000000 
5.729167 3.969406 0.000000 
0.520833 4.339335 0.000000 
0.520833 4.716669 0.000000 
0.520833 5.101323 0.000000 
0.520833 5.493243 0.000000 
0.520833 5.892324 0.000000 
0.520833 6.297975 0.000000 
1.562500 4.339335 0.000000 
1.562500 4.716669 0.000000 
1.562500 5.101323 0.000000 
1.562500 5.493243 0.000000 
1.562500 5.892324 0.000000 
1.562500 6.297975 0.000000 
2.604167 4.339335 0.000000 
2.604167 4.716669 0.000000 
2.604167 5.101323 0.000000 
2.604167 5.493243 0.000000 
2.604167 5.892324 0.000000 
2.604167 6.297975 0.000000 
3.645833 4.339335 0.000000 
3.645833 4.716669 0.000000 
3.645833 5.101323 0.000000 
3.645833 5.493243 0.000000 
3.645833 5.892324 0.000000 
3.645833 6.297975 0.000000 
4.687500 4.339335 0.000000 
4.687500 4.716669 0.000000 
4.687500 5.101323 0.000000 
4.687500 5.493243 0.000000 
4.687500 5.892324 0.000000 
4.687500 6.297975 0.000000 
5.729167 4.339335 0.000000 
5.729167 4.716669 0.000000 
5.729167 5.101323 0.000000 
5.729167 5.493243 0.000000 
5.729167 5.892324 0.000000 
5.729167 6.297975 0.000000 
0.520833 6.709841 0.000000 
0.520833 7.127742 0.000000 
0.520833 7.552192 0.000000 
0.520833 7.983138 0.000000 
0.520833 8.420490 0.000000 
0.520833 8.864187 0.000000 
1.562500 6.709841 0.000000 
1.562500 7.127742 0.000000 
1.562500 7.552192 0.000000 
1.562500 7.983138 0.000000 
1.562500 8.420490 0.000000 
1.562500 8.864187 0.000000 
2.604167 6.709841 0.000000 
2.604167 7.127742 0.000000 
2.604167 7.552192 0.000000 
2.604167 7.983138 0.000000 
2.604167 8.420490 0.000000 
2.604167 8.864187 0.000000 
3.645833 6.709841 0.000000 
3.645833 7.127742 0.000000 
3.645833 7.552192 0.000000 
3.645833 7.983138 0.000000 
3.645833 8.420490 0.000000 
3.645833 8.864187 0.000000 
4.687500 6.709841 0.000000 
4.687500 7.127742 0.000000 
4.687500 7.552192 0.000000 
4.687500 7.983138 0.000000 
4.687500 8.420490 0.000000 
4.687500 8.864187 0.000000 
5.729167 6.709841 0.000000 
5.729167 7.127742 0.000000 
5.729167 7.552192 0.000000 
5.729167 7.983138 0.000000 
5.729167 8.420490 0.000000 
5.729167 8.864187 0.000000 
0.520833 9.316197 0.000000 
0.520833 9.777573 0.000000 
0.520833 10.249528 0.000000 
0.520833 10.731334 0.000000 
0.520833 11.223870 0.000000 
0.520833 11.727333 0.000000 
1.562500 9.316197 0.000000 
1.562500 9.777573 0.000000 
1.562500 10.249528 0.000000 
1.562500 10.731334 0.000000 
1.562500 11.223870 0.000000 
1.562500 11.727333 0.000000 
2.604167 9.316197 0.000000 
2.604167 9.777573 0.000000 
2.604167 10.249528 0.000000 
2.604167 10.731334 0.000000 
2.604167 11.223870 0.000000 
2.604167 11.727333 0.000000 
3.645833 9.316197 0.000000 
3.645833 9.777573 0.000000 
3.645833 10.249528 0.000000 
3.645833 10.731334 0.000000 
3.645833 11.223870 0.000000 
3.645833 11.727333 0.000000 
4.687500 9.316197 0.000000 
4.687500 9.777573 0.000000 
4.687500 10.249528 0.000000 
4.687500 10.731334 0.000000 
4.687500 11.223870 0.000000 
4.687500 11.727333 0.000000 
5.729167 9.316197 0.000000 
5.729167 9.777573 0.000000 
5.729167 10.249528 0.000000 
5.729167 10.731334 0.000000 
5.729167 11.223870 0.000000 
5.729167 11.727333 0.000000 
0.520833 12.243990 0.000000 
0.520833 12.774396 0.000000 
0.520833 13.316722 0.000000 
0.520833 13.870844 0.000000 
0.520833 14.439167 0.000000 
0.520833 15.020118 0.000000 
1.562500 12.243990 0.000000 
1.562500 12.774396 0.000000 
1.562500 13.316722 0.000000 
1.562500 13.870844 0.000000 
1.562500 14.439167 0.000000 
1.562500 15.020118 0.000000 
2.604167 12.243990 0.000000 
2.604167 12.774396 0.000000 
2.604167 13.316722 0.000000 
2.604167 13.870844 0.000000 
2.604167 14.439167 0.000000 
2.604167 15.020118 0.000000 
3.645833 12.243990 0.000000 
3.645833 12.774396 0.000000 
3.645833 13.316722 0.000000 
3.645833 13.870844 0.000000 
3.645833 14.439167 0.000000 
3.645833 15.020118 0.000000 
4.687500 12.243990 0.000000 
4.687500 12.774396 0.000000 
4.687500 13.316722 0.000000 
4.687500 13.870844 0.000000 
4.687500 14.439167 0.000000 
4.687500 15.020118 0.000000 
5.729167 12.243990 0.000000 
5.729167 12.774396 0.000000 
5.729167 13.316722 0.000000 
5.729167 13.870844 0.000000 
5.729167 14.439167 0.000000 
5.729167 15.020118 0.000000 
0.520833 15.618402 0.000000 
0.520833 16.236622 0.000000 
0.520833 16.875512 0.000000 
0.520833 17.539207 0.000000 
0.520833 18.230179 0.000000 
0.520833 18.948581 0.000000 
1.562500 15.618402 0.000000 
1.562500 16.236622 0.000000 
1.562500 16.875512 0.000000 
1.562500 17.539207 0.000000 
1.562500 18.230179 0.000000 
1.562500 18.948581 0.000000 
2.604167 15.618402 0.000000 
2.604167 16.236622 0.000000 
2.604167 16.875512 0.000000 
2.604167 17.539207 0.000000 
2.604167 18.230179 0.000000 
2.604167 18.948581 0.000000 
3.645833 15.618402 0.000000 
3.645833 16.236622 0.000000 
3.645833 16.875512 0.000000 
3.645833 17.539207 0.000000 
3.645833 18.230179 0.000000 
3.645833 18.948581 0.000000 
4.687500 15.618402 0.000000 
4.687500 16.236622 0.000000 
4.687500 16.875512 0.000000 
4.687500 17.539207 0.000000 
4.687500 18.230179 0.000000 
4.687500 18.948581 0.000000 
5.729167 15.618402 0.000000 
5.729167 16.236622 0.000000 
5.729167 16.875512 0.000000 
5.729167 17.539207 0.000000 
5.729167 18.230179 0.000000 
5.729167 18.948581 0.000000 
0.520833 19.695529 0.000000 
0.520833 20.473533 0.000000 
0.520833 21.285136 0.000000 
0.520833 22.138208 0.000000 
0.520833 23.034700 0.000000 
0.520833 23.985763 0.000000 
1.562500 19.695529 0.000000 
1.562500 20.473533 0.000000 
1.562500 21.285136 0.000000 
1.562500 22.138208 0.000000 
1.562500 23.034700 0.000000 
1.562500 23.985763 0.000000 
2.604167 19.695529 0.000000 
2.604167 20.473533 0.000000 
2.604167 21.285136 0.000000 
2.604167 22.138208 0.000000 
2.604167 23.034700 0.000000 
2.604167 23.985763 0.000000 
3.645833 19.695529 0.000000 
3.645833 20.473533 0.000000 
3.645833 21.285136 0.000000 
3.645833 22.138208 0.000000 
3.645833 23.034700 0.000000 
3.645833 23.985763 0.000000 
4.687500 19.695529 0.000000 
4.687500 20.473533 0.000000 
4.687500 21.285136 0.000000 
4.687500 22.138208 0.000000 
4.687500 23.034700 0.000000 
4.687500 23.985763 0.000000 
5.729167 19.695529 0.000000 
5.729167 20.473533 0.000000 
5.729167 21.285136 0.000000 
5.729167 22.138208 0.000000 
5.729167 23.034700 0.000000 
5.729167 23.985763 0.000000 

POINT_DATA 288
SCALARS sigma_xx FLOAT 1
LOOKUP_TABLE default
0.000000
0.000000
0.000000
0.000000
0.000000
>>>>>>> Stashed changes
-0.000000
0.000000
0.000000
0.000000
0.000000
<<<<<<< Updated upstream
-0.000000
-0.000000
-0.000000
=======
0.000000
>>>>>>> Stashed changes
-0.000000
0.000000
0.000000
0.000000
0.000000
<<<<<<< Updated upstream
-0.000000
-0.000000
-0.000000
=======
0.000000
>>>>>>> Stashed changes
-0.000000
0.000000
0.000000
0.000000
0.000000
0.000000
-0.000000
<<<<<<< Updated upstream
-0.000000
-0.000000
-0.000000
-0.000000
-0.000000
-0.000000
-0.000000
-0.000000
-0.000000
-0.000000
-0.000000
-0.000000
-0.000000
-0.000000
-0.000000
-0.000000
0.000000
-0.000000
-0.000000
-0.000000
-0.000000
-0.000000
-0.000000
-0.000000
-0.000000
-0.000000
-0.000000
-0.000000
-0.000000
-0.000000
-0.000000
-0.000000
-0.000000
-0.000000
-0.000000
-0.000000
-0.000000
-0.000000
-0.000000
-0.000000
-0.000000
-0.000000
-0.000000
-0.000000
-0.000000
-0.000000
-0.000000
-0.000000
-0.000000
0.000000
-0.000000
=======
0.000000
0.000000
0.000000
0.000000
0.000000
-0.000000
0.000000
0.000000
0.000000
0.000000
0.000000
>>>>>>> Stashed changes
-0.000000
-0.000000
-0.000000
-0.000000
-0.000000
-0.000000
-0.000000
-0.000000
-0.000000
-0.000000
-0.000000
-0.000000
-0.000000
-0.000000
-0.000000
-0.000000
-0.000000
-0.000000
-0.000000
-0.000000
-0.000000
-0.000000
-0.000000
-0.000000
-0.000000
-0.000000
-0.000000
-0.000000
-0.000000
-0.000000
-0.000000
-0.000000
-0.000000
-0.000000
-0.000000
-0.000000
-0.000000
-0.000000
-0.000000
-0.000000
-0.000000
-0.000000
-0.000000
-0.000000
-0.000000
<<<<<<< Updated upstream
=======
0.000000
>>>>>>> Stashed changes
-0.000000
-0.000000
-0.000000
-0.000000
-0.000000
<<<<<<< Updated upstream
=======
0.000000
>>>>>>> Stashed changes
-0.000000
-0.000000
-0.000000
-0.000000
-0.000000
<<<<<<< Updated upstream
=======
0.000000
>>>>>>> Stashed changes
-0.000000
-0.000000
-0.000000
-0.000000
-0.000000
<<<<<<< Updated upstream
-0.000000
-0.000000
-0.000000
-0.000000
=======
0.000000
-0.000000
0.000000
-0.000000
-0.000000
-0.000000
0.000000
>>>>>>> Stashed changes
-0.000000
-0.000000
-0.000000
-0.000000
-0.000000
-0.000000
-0.000000
-0.000000
-0.000000
-0.000000
-0.000000
-0.000000
-0.000000
-0.000000
-0.000000
-0.000000
-0.000000
-0.000000
<<<<<<< Updated upstream
-0.000000
-0.000000
-0.000000
-0.000000
-0.000000
-0.000000
-0.000000
-0.000000
-0.000000
-0.000000
-0.000000
-0.000000
-0.000000
-0.000000
-0.000000
-0.000000
-0.000000
-0.000000
-0.000000
-0.000000
-0.000000
-0.000000
-0.000000
-0.000000
-0.000000
-0.000000
-0.000000
-0.000000
-0.000000
-0.000000
-0.000000
-0.000000
-0.000000
-0.000000
-0.000000
-0.000000
-0.000000
-0.000000
-0.000000
-0.000000
-0.000000
-0.000000
-0.000000
-0.000000
-0.000000
-0.000000
-0.000000
-0.000000
-0.000000
-0.000000
-0.000000
-0.000000
-0.000000
-0.000000
-0.000000
-0.000000
-0.000000
-0.000000
-0.000000
-0.000000
-0.000000
-0.000000
-0.000000
-0.000000
-0.000000
-0.000000
-0.000000
-0.000000
-0.000000
-0.000000
-0.000000
-0.000000
-0.000000
-0.000000
-0.000000
-0.000000
-0.000000
-0.000000
-0.000000
-0.000000
-0.000000
-0.000000
-0.000000
-0.000000
-0.000000
-0.000000
-0.000000
-0.000000
-0.000000
-0.000000
-0.000000
-0.000000
-0.000000
-0.000000
-0.000000
-0.000000
-0.000000
-0.000000
-0.000000
-0.000000
-0.000000
-0.000000
-0.000000
-0.000000
-0.000000
-0.000000
-0.000000
-0.000000
-0.000000
-0.000000
-0.000000
-0.000000
-0.000000
-0.000000
-0.000000
-0.000000
-0.000000
-0.000000
-0.000000
-0.000000
-0.000000
-0.000000
-0.000000
-0.000000
-0.000000
-0.000000
-0.000000
-0.000000
-0.000000
-0.000000
-0.000000
-0.000000
-0.000000
-0.000000
-0.000000
-0.000000
-0.000000
-0.000000
-0.000000
-0.000000
-0.000000
-0.000000
-0.000000
-0.000000
-0.000000
-0.000000
-0.000000
-0.000000
-0.000000
-0.000000
-0.000000
-0.000000
-0.000000
-0.000000
-0.000000
-0.000000
-0.000000
-0.000000
-0.000000
-0.000000
-0.000000
-0.000000
-0.000000
-0.000000
-0.000000
-0.000000
-0.000000
-0.000000
-0.000000
-0.000000
-0.000000
-0.000000
-0.000000
-0.000000
-0.000000
-0.000000
-0.000000
-0.000000
-0.000000
-0.000000
-0.000000
-0.000000
-0.000000
-0.000000
-0.000000
-0.000000
-0.000000
-0.000000
-0.000000
-0.000000
-0.000000
-0.000000
-0.000000
-0.000000
-0.000000
-0.000000
-0.000000
-0.000000
-0.000000
-0.000000
-0.000000
-0.000000
-0.000000
-0.000000
-0.000000
-0.000000
-0.000000
-0.000000
-0.000000
-0.000000
-0.000000
-0.000000
-0.000000
-0.000000
-0.000000
-0.000000
-0.000000
-0.000000
-0.000000
-0.000000
-0.000000
-0.000000
-0.000000
-0.000000
-0.000000
-0.000000
-0.000000
-0.000000
-0.000000
-0.000000
-0.000000
-0.000000
-0.000000
-0.000000
-0.000000
-0.000000
-0.000000
-0.000000
-0.000000
-0.000000
-0.000000
-0.000000
-0.000000
-0.000000
-0.000000
-0.000000
-0.000000
-0.000000
-0.000000
-0.000000
-0.000000
-0.000000
-0.000000
-0.000000
-0.000000
-0.000000
-0.000000
-0.000000
-0.000000
-0.000000
-0.000000
-0.000000
-0.000000
-0.000000
0.000000
-0.000000
-0.000000
-0.000000
-0.000000
-0.000000
-0.000000
-0.000000
-0.000000
-0.000000
-0.000000
-0.000000
-0.000000
-0.000000
-0.000000
-0.000000
-0.000000
-0.000000
-0.000000
-0.000000
-0.000000
-0.000000
-0.000000
-0.000000
-0.000000
-0.000000
-0.000000
-0.000000
-0.000000
-0.000000
-0.000000
-0.000000
-0.000000
-0.000000
-0.000000
-0.000000
-0.000000
-0.000000
-0.000000
-0.000000
-0.000000
-0.000000
-0.000000
-0.000000
-0.000000
-0.000000
-0.000000
-0.000000
-0.000000
-0.000000
-0.000000
-0.000000
-0.000000
-0.000000
-0.000000
-0.000000
-0.000000
-0.000000
-0.000000
-0.000000
-0.000000
-0.000000
-0.000000
-0.000000
-0.000000
-0.000000
-0.000000
-0.000000
-0.000000
-0.000000
-0.000000
-0.000000
-0.000000
-0.000000
-0.000000
-0.000000
-0.000000
-0.000000
-0.000000
-0.000000
-0.000000
-0.000000
-0.000000
-0.000000
-0.000000
-0.000000
-0.000000
-0.000000
-0.000000
-0.000000
-0.000000
-0.000000
-0.000000
-0.000000
-0.000000
-0.000000
-0.000000
-0.000000
-0.000000
-0.000000
-0.000000
-0.000000
-0.000000
-0.000000
-0.000000
-0.000000
-0.000000
-0.000000
-0.000000
-0.000000
-0.000000
-0.000000
-0.000000
-0.000000
-0.000000
-0.000000
-0.000000
-0.000000
-0.000000
-0.000000
-0.000000
-0.000000
-0.000000
-0.000000
-0.000000
-0.000000
-0.000000
-0.000000
-0.000000
-0.000000
-0.000000
-0.000000
-0.000000
-0.000000
-0.000000
-0.000000
-0.000000
-0.000000
-0.000000
-0.000000
-0.000000
-0.000000
-0.000000
-0.000000
-0.000000
-0.000000
-0.000000
-0.000000
-0.000000
-0.000000
-0.000000
-0.000000
-0.000000
-0.000000
-0.000000
-0.000000
-0.000000
-0.000000
-0.000000
-0.000000
-0.000000
-0.000000
0.000000
-0.000000
-0.000000
-0.000000
-0.000000
-0.000000
-0.000000
-0.000000
-0.000000
-0.000000
-0.000000
-0.000000
-0.000000
-0.000000
-0.000000
-0.000000
-0.000000
-0.000000
-0.000000
-0.000000
-0.000000
-0.000000
-0.000000
-0.000000
-0.000000
-0.000000
-0.000000
-0.000000
-0.000000
-0.000000
-0.000000
-0.000000
-0.000000
-0.000000
-0.000000
-0.000000
-0.000000
-0.000000
-0.000000
-0.000000
-0.000000
-0.000000
-0.000000
-0.000000
-0.000000
-0.000000
-0.000000
-0.000000
-0.000000
-0.000000
-0.000000
-0.000000
-0.000000
-0.000000
-0.000000
-0.000000
-0.000000
-0.000000
-0.000000
-0.000000
-0.000000
-0.000000
-0.000000
-0.000000
-0.000000
-0.000000
-0.000000
-0.000000
-0.000000
-0.000000
-0.000000
-0.000000
-0.000000
-0.000000
-0.000000
-0.000000
-0.000000
-0.000000
-0.000000
-0.000000
-0.000000
-0.000000
-0.000000
-0.000000
-0.000000
-0.000000
-0.000000
-0.000000
-0.000000
-0.000000
0.000000
-0.000000
-0.000000
-0.000000
-0.000000
-0.000000
-0.000000
-0.000000
-0.000000
-0.000000
-0.000000
-0.000000
-0.000000
-0.000000
-0.000000
-0.000000
-0.000000
-0.000000
-0.000000
-0.000000
-0.000000
-0.000000
-0.000000
-0.000000
-0.000000
-0.000000
-0.000000
-0.000000
-0.000000
-0.000000
-0.000000
-0.000000
-0.000000
-0.000000
-0.000000
-0.000000
-0.000000
-0.000000
-0.000000
-0.000000
-0.000000
-0.000000
-0.000000
-0.000000
-0.000000
-0.000000
-0.000000
-0.000000
-0.000000
-0.000000
-0.000000
-0.000000
-0.000000
0.000000
-0.000000
-0.000000
-0.000000
-0.000000
-0.000000
-0.000000
-0.000000
0.000000
-0.000000
-0.000000
-0.000000
-0.000000
-0.000000
-0.000000
-0.000000
-0.000000
-0.000000
-0.000000
-0.000000
-0.000000
-0.000000
-0.000000
-0.000000
-0.000000
-0.000000
-0.000000
-0.000000
-0.000000
-0.000000
0.000000
-0.000000
-0.000000
-0.000000
-0.000000
-0.000000
-0.000000
-0.000000
-0.000000
-0.000000
-0.000000
-0.000000
-0.000000
-0.000000
-0.000000
-0.000000
-0.000000
-0.000000
-0.000000
-0.000000
-0.000000
-0.000000
-0.000000
-0.000000
-0.000000
-0.000000
-0.000000
-0.000000
-0.000000
-0.000000
-0.000000
-0.000000
-0.000000
-0.000000
-0.000000
-0.000000
-0.000000
-0.000000
-0.000000
-0.000000
-0.000000
-0.000000
-0.000000
-0.000000
-0.000000
-0.000000
-0.000000
-0.000000
-0.000000
-0.000000
-0.000000
-0.000000
-0.000000
-0.000000
-0.000000
-0.000000
-0.000000
-0.000000
-0.000000
-0.000000
-0.000000
-0.000000
-0.000000
-0.000000
0.000000
-0.000000
-0.000000
-0.000000
-0.000000
-0.000000
-0.000000
-0.000000
-0.000000
-0.000000
-0.000000
-0.000000
-0.000000
-0.000000
-0.000000
-0.000000
-0.000000
-0.000000
-0.000000
-0.000000
-0.000000
-0.000000
-0.000000
-0.000000
-0.000000
-0.000000
-0.000000
-0.000000
-0.000000
-0.000000
-0.000000
-0.000000
-0.000000
-0.000000
-0.000000
-0.000000
-0.000000
-0.000000
-0.000000
-0.000000
-0.000000
-0.000000
-0.000000
-0.000000
-0.000000
-0.000000
-0.000000
-0.000000
-0.000000
-0.000000
-0.000000
-0.000000
-0.000000
-0.000000
-0.000000
-0.000000
-0.000000
-0.000000
-0.000000
-0.000000
-0.000000
-0.000000
-0.000000
-0.000000
-0.000000
-0.000000
-0.000000
-0.000000
-0.000000
-0.000000
-0.000000
-0.000000
-0.000000
-0.000000
-0.000000
-0.000000
-0.000000
-0.000000
-0.000000
-0.000000
-0.000000
-0.000000
-0.000000
-0.000000
-0.000000
-0.000000
-0.000000
0.000000
-0.000000
-0.000000
-0.000000
-0.000000
-0.000000
-0.000000
-0.000000
-0.000000
-0.000000
-0.000000
-0.000000
-0.000000
-0.000000
-0.000000
-0.000000
-0.000000
-0.000000
-0.000000
-0.000000
-0.000000
-0.000000
-0.000000
-0.000000
-0.000000
-0.000000
-0.000000
-0.000000
-0.000000
-0.000000
-0.000000
-0.000000
-0.000000
-0.000000
-0.000000
-0.000000
-0.000000
-0.000000
-0.000000
-0.000000
-0.000000
-0.000000
-0.000000
-0.000000
-0.000000
-0.000000
-0.000000
-0.000000
-0.000000
-0.000000
-0.000000
-0.000000
-0.000000
-0.000000
-0.000000
-0.000000
-0.000000
-0.000000
-0.000000
-0.000000
-0.000000
-0.000000
-0.000000
-0.000000
-0.000000
-0.000000
-0.000000
-0.000000
-0.000000
-0.000000
-0.000000
-0.000000
-0.000000
-0.000000
-0.000000
-0.000000
-0.000000
-0.000000
-0.000000
-0.000000
-0.000000
-0.000000
-0.000000
-0.000000
-0.000000
-0.000000
-0.000000
-0.000000
-0.000000
-0.000000
-0.000000
-0.000000
-0.000000
-0.000000
-0.000000
-0.000000
-0.000000
-0.000000
-0.000000
-0.000000
-0.000000
-0.000000
-0.000000
-0.000000
-0.000000
-0.000000
-0.000000
-0.000000
-0.000000
-0.000000
-0.000000
-0.000000
-0.000000
-0.000000
-0.000000
-0.000000
-0.000000
-0.000000
-0.000000
-0.000000
-0.000000
-0.000000
-0.000000
-0.000000
-0.000000
-0.000000
0.000000
-0.000000
-0.000000
-0.000000
-0.000000
-0.000000
-0.000000
-0.000000
-0.000000
-0.000000
-0.000000
-0.000000
-0.000000
-0.000000
-0.000000
-0.000000
-0.000000
-0.000000
-0.000000
-0.000000
-0.000000
-0.000000
-0.000000
-0.000000
-0.000000
-0.000000
-0.000000
-0.000000
-0.000000
-0.000000
-0.000000
-0.000000
-0.000000
-0.000000
-0.000000
-0.000000
-0.000000
-0.000000
-0.000000
-0.000000
-0.000000
-0.000000
-0.000000
-0.000000
-0.000000
-0.000000
-0.000000
-0.000000
-0.000000
-0.000000