# vtk DataFile Version 2.0
MATLAB generated vtk file, WMC
ASCII
DATASET UNSTRUCTURED_GRID
<<<<<<< Updated upstream
POINTS 2048 double
0.024414 0.008407 0.000000 
0.024414 0.025220 0.000000 
0.073242 0.008407 0.000000 
0.073242 0.025220 0.000000 
0.024414 0.042037 0.000000 
0.024414 0.058862 0.000000 
0.073242 0.042037 0.000000 
0.073242 0.058862 0.000000 
0.024414 0.075697 0.000000 
0.024414 0.092543 0.000000 
0.073242 0.075697 0.000000 
0.073242 0.092543 0.000000 
0.024414 0.109398 0.000000 
0.024414 0.126260 0.000000 
0.073242 0.109398 0.000000 
0.073242 0.126260 0.000000 
0.024414 0.143130 0.000000 
0.024414 0.160009 0.000000 
0.073242 0.143130 0.000000 
0.073242 0.160009 0.000000 
0.024414 0.176896 0.000000 
0.024414 0.193793 0.000000 
0.073242 0.176896 0.000000 
0.073242 0.193793 0.000000 
0.024414 0.210699 0.000000 
0.024414 0.227612 0.000000 
0.073242 0.210699 0.000000 
0.073242 0.227612 0.000000 
0.024414 0.244534 0.000000 
0.024414 0.261465 0.000000 
0.073242 0.244534 0.000000 
0.073242 0.261465 0.000000 
0.024414 0.278405 0.000000 
0.024414 0.295354 0.000000 
0.073242 0.278405 0.000000 
0.073242 0.295354 0.000000 
0.024414 0.312311 0.000000 
0.024414 0.329276 0.000000 
0.073242 0.312311 0.000000 
0.073242 0.329276 0.000000 
0.024414 0.346250 0.000000 
0.024414 0.363232 0.000000 
0.073242 0.346250 0.000000 
0.073242 0.363232 0.000000 
0.024414 0.380224 0.000000 
0.024414 0.397225 0.000000 
0.073242 0.380224 0.000000 
0.073242 0.397225 0.000000 
0.024414 0.414234 0.000000 
0.024414 0.431252 0.000000 
0.073242 0.414234 0.000000 
0.073242 0.431252 0.000000 
0.024414 0.448278 0.000000 
0.024414 0.465313 0.000000 
0.073242 0.448278 0.000000 
0.073242 0.465313 0.000000 
0.024414 0.482357 0.000000 
0.024414 0.499410 0.000000 
0.073242 0.482357 0.000000 
0.073242 0.499410 0.000000 
0.024414 0.516472 0.000000 
0.024414 0.533543 0.000000 
0.073242 0.516472 0.000000 
0.073242 0.533543 0.000000 
0.024414 0.550622 0.000000 
0.024414 0.567710 0.000000 
0.073242 0.550622 0.000000 
0.073242 0.567710 0.000000 
0.024414 0.584808 0.000000 
0.024414 0.601913 0.000000 
0.073242 0.584808 0.000000 
0.073242 0.601913 0.000000 
0.024414 0.619028 0.000000 
0.024414 0.636151 0.000000 
0.073242 0.619028 0.000000 
0.073242 0.636151 0.000000 
0.024414 0.653283 0.000000 
0.024414 0.670424 0.000000 
0.073242 0.653283 0.000000 
0.073242 0.670424 0.000000 
0.024414 0.687574 0.000000 
0.024414 0.704733 0.000000 
0.073242 0.687574 0.000000 
0.073242 0.704733 0.000000 
0.024414 0.721901 0.000000 
0.024414 0.739078 0.000000 
0.073242 0.721901 0.000000 
0.073242 0.739078 0.000000 
0.024414 0.756264 0.000000 
0.024414 0.773459 0.000000 
0.073242 0.756264 0.000000 
0.073242 0.773459 0.000000 
0.024414 0.790663 0.000000 
0.024414 0.807876 0.000000 
0.073242 0.790663 0.000000 
0.073242 0.807876 0.000000 
0.024414 0.825098 0.000000 
0.024414 0.842329 0.000000 
0.073242 0.825098 0.000000 
0.073242 0.842329 0.000000 
0.024414 0.859568 0.000000 
0.024414 0.876818 0.000000 
0.073242 0.859568 0.000000 
0.073242 0.876818 0.000000 
0.024414 0.894075 0.000000 
0.024414 0.911342 0.000000 
0.073242 0.894075 0.000000 
0.073242 0.911342 0.000000 
0.024414 0.928618 0.000000 
0.024414 0.945904 0.000000 
0.073242 0.928618 0.000000 
0.073242 0.945904 0.000000 
0.024414 0.963198 0.000000 
0.024414 0.980501 0.000000 
0.073242 0.963198 0.000000 
0.073242 0.980501 0.000000 
0.024414 0.997814 0.000000 
0.024414 1.015136 0.000000 
0.073242 0.997814 0.000000 
0.073242 1.015136 0.000000 
0.024414 1.032467 0.000000 
0.024414 1.049806 0.000000 
0.073242 1.032467 0.000000 
0.073242 1.049806 0.000000 
0.024414 1.067156 0.000000 
0.024414 1.084514 0.000000 
0.073242 1.067156 0.000000 
0.073242 1.084514 0.000000 
0.024414 1.101881 0.000000 
0.024414 1.119257 0.000000 
0.073242 1.101881 0.000000 
0.073242 1.119257 0.000000 
0.024414 1.136643 0.000000 
0.024414 1.154038 0.000000 
0.073242 1.136643 0.000000 
0.073242 1.154038 0.000000 
0.024414 1.171442 0.000000 
0.024414 1.188855 0.000000 
0.073242 1.171442 0.000000 
0.073242 1.188855 0.000000 
0.024414 1.206278 0.000000 
0.024414 1.223711 0.000000 
0.073242 1.206278 0.000000 
0.073242 1.223711 0.000000 
0.024414 1.241153 0.000000 
0.024414 1.258604 0.000000 
0.073242 1.241153 0.000000 
0.073242 1.258604 0.000000 
0.024414 1.276063 0.000000 
0.024414 1.293533 0.000000 
0.073242 1.276063 0.000000 
0.073242 1.293533 0.000000 
0.024414 1.311011 0.000000 
0.024414 1.328499 0.000000 
0.073242 1.311011 0.000000 
0.073242 1.328499 0.000000 
0.024414 1.345996 0.000000 
0.024414 1.363503 0.000000 
0.073242 1.345996 0.000000 
0.073242 1.363503 0.000000 
0.024414 1.381019 0.000000 
0.024414 1.398545 0.000000 
0.073242 1.381019 0.000000 
0.073242 1.398545 0.000000 
0.024414 1.416079 0.000000 
0.024414 1.433624 0.000000 
0.073242 1.416079 0.000000 
0.073242 1.433624 0.000000 
0.024414 1.451178 0.000000 
0.024414 1.468741 0.000000 
0.073242 1.451178 0.000000 
0.073242 1.468741 0.000000 
0.024414 1.486314 0.000000 
0.024414 1.503896 0.000000 
0.073242 1.486314 0.000000 
0.073242 1.503896 0.000000 
0.024414 1.521488 0.000000 
0.024414 1.539088 0.000000 
0.073242 1.521488 0.000000 
0.073242 1.539088 0.000000 
0.024414 1.556700 0.000000 
0.024414 1.574319 0.000000 
0.073242 1.556700 0.000000 
0.073242 1.574319 0.000000 
0.024414 1.591949 0.000000 
0.024414 1.609588 0.000000 
0.073242 1.591949 0.000000 
0.073242 1.609588 0.000000 
0.024414 1.627238 0.000000 
0.024414 1.644896 0.000000 
0.073242 1.627238 0.000000 
0.073242 1.644896 0.000000 
0.024414 1.662564 0.000000 
0.024414 1.680242 0.000000 
0.073242 1.662564 0.000000 
0.073242 1.680242 0.000000 
0.024414 1.697929 0.000000 
0.024414 1.715627 0.000000 
0.073242 1.697929 0.000000 
0.073242 1.715627 0.000000 
0.024414 1.733333 0.000000 
0.024414 1.751050 0.000000 
0.073242 1.733333 0.000000 
0.073242 1.751050 0.000000 
0.024414 1.768775 0.000000 
0.024414 1.786511 0.000000 
0.073242 1.768775 0.000000 
0.073242 1.786511 0.000000 
0.024414 1.804256 0.000000 
0.024414 1.822010 0.000000 
0.073242 1.804256 0.000000 
0.073242 1.822010 0.000000 
0.024414 1.839775 0.000000 
0.024414 1.857550 0.000000 
0.073242 1.839775 0.000000 
0.073242 1.857550 0.000000 
0.024414 1.875335 0.000000 
0.024414 1.893128 0.000000 
0.073242 1.875335 0.000000 
0.073242 1.893128 0.000000 
0.024414 1.910932 0.000000 
0.024414 1.928745 0.000000 
0.073242 1.910932 0.000000 
0.073242 1.928745 0.000000 
0.024414 1.946568 0.000000 
0.024414 1.964401 0.000000 
0.073242 1.946568 0.000000 
0.073242 1.964401 0.000000 
0.024414 1.982243 0.000000 
0.024414 2.000097 0.000000 
0.073242 1.982243 0.000000 
0.073242 2.000097 0.000000 
0.024414 2.017959 0.000000 
0.024414 2.035832 0.000000 
0.073242 2.017959 0.000000 
0.073242 2.035832 0.000000 
0.024414 2.053715 0.000000 
0.024414 2.071607 0.000000 
0.073242 2.053715 0.000000 
0.073242 2.071607 0.000000 
0.024414 2.089509 0.000000 
0.024414 2.107422 0.000000 
0.073242 2.089509 0.000000 
0.073242 2.107422 0.000000 
0.024414 2.125344 0.000000 
0.024414 2.143276 0.000000 
0.073242 2.125344 0.000000 
0.073242 2.143276 0.000000 
0.024414 2.161217 0.000000 
0.024414 2.179170 0.000000 
0.073242 2.161217 0.000000 
0.073242 2.179170 0.000000 
0.024414 2.197131 0.000000 
0.024414 2.215103 0.000000 
0.073242 2.197131 0.000000 
0.073242 2.215103 0.000000 
0.024414 2.233085 0.000000 
0.024414 2.251078 0.000000 
0.073242 2.233085 0.000000 
0.073242 2.251078 0.000000 
0.024414 2.269079 0.000000 
0.024414 2.287091 0.000000 
0.073242 2.269079 0.000000 
0.073242 2.287091 0.000000 
0.024414 2.305113 0.000000 
0.024414 2.323146 0.000000 
0.073242 2.305113 0.000000 
0.073242 2.323146 0.000000 
0.024414 2.341189 0.000000 
0.024414 2.359242 0.000000 
0.073242 2.341189 0.000000 
0.073242 2.359242 0.000000 
0.024414 2.377304 0.000000 
0.024414 2.395377 0.000000 
0.073242 2.377304 0.000000 
0.073242 2.395377 0.000000 
0.024414 2.413460 0.000000 
0.024414 2.431553 0.000000 
0.073242 2.413460 0.000000 
0.073242 2.431553 0.000000 
0.024414 2.449656 0.000000 
0.024414 2.467771 0.000000 
0.073242 2.449656 0.000000 
0.073242 2.467771 0.000000 
0.024414 2.485894 0.000000 
0.024414 2.504027 0.000000 
0.073242 2.485894 0.000000 
0.073242 2.504027 0.000000 
0.024414 2.522173 0.000000 
0.024414 2.540327 0.000000 
0.073242 2.522173 0.000000 
0.073242 2.540327 0.000000 
0.024414 2.558492 0.000000 
0.024414 2.576666 0.000000 
0.073242 2.558492 0.000000 
0.073242 2.576666 0.000000 
0.024414 2.594851 0.000000 
0.024414 2.613047 0.000000 
0.073242 2.594851 0.000000 
0.073242 2.613047 0.000000 
0.024414 2.631253 0.000000 
0.024414 2.649469 0.000000 
0.073242 2.631253 0.000000 
0.073242 2.649469 0.000000 
0.024414 2.667695 0.000000 
0.024414 2.685934 0.000000 
0.073242 2.667695 0.000000 
0.073242 2.685934 0.000000 
0.024414 2.704181 0.000000 
0.024414 2.722439 0.000000 
0.073242 2.704181 0.000000 
0.073242 2.722439 0.000000 
0.024414 2.740709 0.000000 
0.024414 2.758987 0.000000 
0.073242 2.740709 0.000000 
0.073242 2.758987 0.000000 
0.024414 2.777277 0.000000 
0.024414 2.795577 0.000000 
0.073242 2.777277 0.000000 
0.073242 2.795577 0.000000 
0.024414 2.813888 0.000000 
0.024414 2.832207 0.000000 
0.073242 2.813888 0.000000 
0.073242 2.832207 0.000000 
0.024414 2.850540 0.000000 
0.024414 2.868880 0.000000 
0.073242 2.850540 0.000000 
0.073242 2.868880 0.000000 
0.024414 2.887233 0.000000 
0.024414 2.905596 0.000000 
0.073242 2.887233 0.000000 
0.073242 2.905596 0.000000 
0.024414 2.923968 0.000000 
0.024414 2.942352 0.000000 
0.073242 2.923968 0.000000 
0.073242 2.942352 0.000000 
0.024414 2.960747 0.000000 
0.024414 2.979152 0.000000 
0.073242 2.960747 0.000000 
0.073242 2.979152 0.000000 
0.024414 2.997569 0.000000 
0.024414 3.015995 0.000000 
0.073242 2.997569 0.000000 
0.073242 3.015995 0.000000 
0.024414 3.034433 0.000000 
0.024414 3.052881 0.000000 
0.073242 3.034433 0.000000 
0.073242 3.052881 0.000000 
0.024414 3.071339 0.000000 
0.024414 3.089809 0.000000 
0.073242 3.071339 0.000000 
0.073242 3.089809 0.000000 
[...]
POINT_DATA 2048
SCALARS sigma_xx FLOAT 1
LOOKUP_TABLE default
0.000000
-0.000000
0.000000
-0.000000
-0.000000
-0.000000
-0.000000
-0.000000
-0.000000
-0.000000
-0.000000
-0.000000
-0.000000
-0.000000
-0.000000
-0.000000
-0.000000
0.000000
-0.000000
0.000000
-0.000000
-0.000000
-0.000000
-0.000000
-0.000000
-0.000000
-0.000000
-0.000000
-0.000000
-0.000000
-0.000000
-0.000000
-0.000000
-0.000000
-0.000000
-0.000000
-0.000000
-0.000000
-0.000000
-0.000000
-0.000000
-0.000000
-0.000000
-0.000000
-0.000000
-0.000000
-0.000000
-0.000000
-0.000000
-0.000000
-0.000000
-0.000000
-0.000000
-0.000000
0.000000
-0.000000
-0.000000
-0.000000
-0.000000
-0.000000
-0.000000
-0.000000
-0.000000
-0.000000
-0.000000
-0.000000
-0.000000
-0.000000
-0.000000
-0.000000
0.000000
-0.000000
-0.000000
-0.000000
-0.000000
-0.000000
-0.000000
-0.000000
-0.000000
-0.000000
-0.000000
-0.000000
-0.000000
-0.000000
-0.000000
-0.000000
-0.000000
-0.000000
-0.000000
-0.000000
-0.000000
-0.000000
-0.000000
-0.000000
-0.000000
-0.000000
-0.000000
-0.000000
-0.000000
0.000000
-0.000000
-0.000000
-0.000000
-0.000000
-0.000000
-0.000000
-0.000000
-0.000000
-0.000000
-0.000000
-0.000000
-0.000000
-0.000000
-0.000000
-0.000000
-0.000000
-0.000000
0.000000
-0.000000
0.000000
-0.000000
-0.000000
-0.000000
-0.000000
-0.000000
=======
POINTS 288 double
0.520833 0.186983 0.000000 
0.520833 0.560950 0.000000 
0.520833 0.934916 0.000000 
0.520833 1.308883 0.000000 
0.520833 1.682849 0.000000 
0.520833 2.056816 0.000000 
1.562500 0.186983 0.000000 
1.562500 0.560950 0.000000 
1.562500 0.934916 0.000000 
1.562500 1.308883 0.000000 
1.562500 1.682849 0.000000 
1.562500 2.056816 0.000000 
2.604167 0.186983 0.000000 
2.604167 0.560950 0.000000 
2.604167 0.934916 0.000000 
2.604167 1.308883 0.000000 
2.604167 1.682849 0.000000 
2.604167 2.056816 0.000000 
3.645833 0.186983 0.000000 
3.645833 0.560950 0.000000 
3.645833 0.934916 0.000000 
3.645833 1.308883 0.000000 
3.645833 1.682849 0.000000 
3.645833 2.056816 0.000000 
4.687500 0.186983 0.000000 
4.687500 0.560950 0.000000 
4.687500 0.934916 0.000000 
4.687500 1.308883 0.000000 
4.687500 1.682849 0.000000 
4.687500 2.056816 0.000000 
5.729167 0.186983 0.000000 
5.729167 0.560950 0.000000 
5.729167 0.934916 0.000000 
5.729167 1.308883 0.000000 
5.729167 1.682849 0.000000 
5.729167 2.056816 0.000000 
0.520833 2.433184 0.000000 
0.520833 2.815930 0.000000 
0.520833 3.204644 0.000000 
0.520833 3.599036 0.000000 
0.520833 3.998650 0.000000 
0.520833 4.402737 0.000000 
1.562500 2.433184 0.000000 
1.562500 2.815930 0.000000 
1.562500 3.204644 0.000000 
1.562500 3.599036 0.000000 
1.562500 3.998650 0.000000 
1.562500 4.402737 0.000000 
2.604167 2.433184 0.000000 
2.604167 2.815930 0.000000 
2.604167 3.204644 0.000000 
2.604167 3.599036 0.000000 
2.604167 3.998650 0.000000 
2.604167 4.402737 0.000000 
3.645833 2.433184 0.000000 
3.645833 2.815930 0.000000 
3.645833 3.204644 0.000000 
3.645833 3.599036 0.000000 
3.645833 3.998650 0.000000 
3.645833 4.402737 0.000000 
4.687500 2.433184 0.000000 
4.687500 2.815930 0.000000 
4.687500 3.204644 0.000000 
4.687500 3.599036 0.000000 
4.687500 3.998650 0.000000 
4.687500 4.402737 0.000000 
5.729167 2.433184 0.000000 
5.729167 2.815930 0.000000 
5.729167 3.204644 0.000000 
5.729167 3.599036 0.000000 
5.729167 3.998650 0.000000 
5.729167 4.402737 0.000000 
0.520833 4.813050 0.000000 
0.520833 5.231577 0.000000 
0.520833 5.658222 0.000000 
0.520833 6.092919 0.000000 
0.520833 6.534267 0.000000 
0.520833 6.979404 0.000000 
1.562500 4.813050 0.000000 
1.562500 5.231577 0.000000 
1.562500 5.658222 0.000000 
1.562500 6.092919 0.000000 
1.562500 6.534267 0.000000 
1.562500 6.979404 0.000000 
2.604167 4.813050 0.000000 
2.604167 5.231577 0.000000 
2.604167 5.658222 0.000000 
2.604167 6.092919 0.000000 
2.604167 6.534267 0.000000 
2.604167 6.979404 0.000000 
3.645833 4.813050 0.000000 
3.645833 5.231577 0.000000 
3.645833 5.658222 0.000000 
3.645833 6.092919 0.000000 
3.645833 6.534267 0.000000 
3.645833 6.979404 0.000000 
4.687500 4.813050 0.000000 
4.687500 5.231577 0.000000 
4.687500 5.658222 0.000000 
4.687500 6.092919 0.000000 
4.687500 6.534267 0.000000 
4.687500 6.979404 0.000000 
5.729167 4.813050 0.000000 
5.729167 5.231577 0.000000 
5.729167 5.658222 0.000000 
5.729167 6.092919 0.000000 
5.729167 6.534267 0.000000 
5.729167 6.979404 0.000000 
0.520833 7.430093 0.000000 
0.520833 7.887372 0.000000 
0.520833 8.351820 0.000000 
0.520833 8.823374 0.000000 
0.520833 9.301937 0.000000 
0.520833 9.787444 0.000000 
1.562500 7.430093 0.000000 
1.562500 7.887372 0.000000 
1.562500 8.351820 0.000000 
1.562500 8.823374 0.000000 
1.562500 9.301937 0.000000 
1.562500 9.787444 0.000000 
2.604167 7.430093 0.000000 
2.604167 7.887372 0.000000 
2.604167 8.351820 0.000000 
2.604167 8.823374 0.000000 
2.604167 9.301937 0.000000 
2.604167 9.787444 0.000000 
3.645833 7.430093 0.000000 
3.645833 7.887372 0.000000 
3.645833 8.351820 0.000000 
3.645833 8.823374 0.000000 
3.645833 9.301937 0.000000 
3.645833 9.787444 0.000000 
4.687500 7.430093 0.000000 
4.687500 7.887372 0.000000 
4.687500 8.351820 0.000000 
4.687500 8.823374 0.000000 
4.687500 9.301937 0.000000 
4.687500 9.787444 0.000000 
5.729167 7.430093 0.000000 
5.729167 7.887372 0.000000 
5.729167 8.351820 0.000000 
5.729167 8.823374 0.000000 
5.729167 9.301937 0.000000 
5.729167 9.787444 0.000000 
0.520833 10.282048 0.000000 
0.520833 10.786900 0.000000 
0.520833 11.303328 0.000000 
0.520833 11.830535 0.000000 
0.520833 12.369431 0.000000 
0.520833 12.918415 0.000000 
1.562500 10.282048 0.000000 
1.562500 10.786900 0.000000 
1.562500 11.303328 0.000000 
1.562500 11.830535 0.000000 
1.562500 12.369431 0.000000 
1.562500 12.918415 0.000000 
2.604167 10.282048 0.000000 
2.604167 10.786900 0.000000 
2.604167 11.303328 0.000000 
2.604167 11.830535 0.000000 
2.604167 12.369431 0.000000 
2.604167 12.918415 0.000000 
3.645833 10.282048 0.000000 
3.645833 10.786900 0.000000 
3.645833 11.303328 0.000000 
3.645833 11.830535 0.000000 
3.645833 12.369431 0.000000 
3.645833 12.918415 0.000000 
4.687500 10.282048 0.000000 
4.687500 10.786900 0.000000 
4.687500 11.303328 0.000000 
4.687500 11.830535 0.000000 
4.687500 12.369431 0.000000 
4.687500 12.918415 0.000000 
5.729167 10.282048 0.000000 
5.729167 10.786900 0.000000 
5.729167 11.303328 0.000000 
5.729167 11.830535 0.000000 
5.729167 12.369431 0.000000 
5.729167 12.918415 0.000000 
0.520833 13.477740 0.000000 
0.520833 14.048427 0.000000 
0.520833 14.631433 0.000000 
0.520833 15.227119 0.000000 
0.520833 15.838070 0.000000 
0.520833 16.462598 0.000000 
1.562500 13.477740 0.000000 
1.562500 14.048427 0.000000 
1.562500 14.631433 0.000000 
1.562500 15.227119 0.000000 
1.562500 15.838070 0.000000 
1.562500 16.462598 0.000000 
2.604167 13.477740 0.000000 
2.604167 14.048427 0.000000 
2.604167 14.631433 0.000000 
2.604167 15.227119 0.000000 
2.604167 15.838070 0.000000 
2.604167 16.462598 0.000000 
3.645833 13.477740 0.000000 
3.645833 14.048427 0.000000 
3.645833 14.631433 0.000000 
3.645833 15.227119 0.000000 
3.645833 15.838070 0.000000 
3.645833 16.462598 0.000000 
4.687500 13.477740 0.000000 
4.687500 14.048427 0.000000 
4.687500 14.631433 0.000000 
4.687500 15.227119 0.000000 
4.687500 15.838070 0.000000 
4.687500 16.462598 0.000000 
5.729167 13.477740 0.000000 
5.729167 14.048427 0.000000 
5.729167 14.631433 0.000000 
5.729167 15.227119 0.000000 
5.729167 15.838070 0.000000 
5.729167 16.462598 0.000000 
0.520833 17.105759 0.000000 
0.520833 17.770351 0.000000 
0.520833 18.457152 0.000000 
0.520833 19.167216 0.000000 
0.520833 19.896421 0.000000 
0.520833 20.644743 0.000000 
1.562500 17.105759 0.000000 
1.562500 17.770351 0.000000 
1.562500 18.457152 0.000000 
1.562500 19.167216 0.000000 
1.562500 19.896421 0.000000 
1.562500 20.644743 0.000000 
2.604167 17.105759 0.000000 
2.604167 17.770351 0.000000 
2.604167 18.457152 0.000000 
2.604167 19.167216 0.000000 
2.604167 19.896421 0.000000 
2.604167 20.644743 0.000000 
3.645833 17.105759 0.000000 
3.645833 17.770351 0.000000 
3.645833 18.457152 0.000000 
3.645833 19.167216 0.000000 
3.645833 19.896421 0.000000 
3.645833 20.644743 0.000000 
4.687500 17.105759 0.000000 
4.687500 17.770351 0.000000 
4.687500 18.457152 0.000000 
4.687500 19.167216 0.000000 
4.687500 19.896421 0.000000 
4.687500 20.644743 0.000000 
5.729167 17.105759 0.000000 
5.729167 17.770351 0.000000 
5.729167 18.457152 0.000000 
5.729167 19.167216 0.000000 
5.729167 19.896421 0.000000 
5.729167 20.644743 0.000000 
0.520833 21.420329 0.000000 
0.520833 22.228162 0.000000 
0.520833 23.070883 0.000000 
0.520833 23.956661 0.000000 
0.520833 24.887044 0.000000 
0.520833 25.860291 0.000000 
1.562500 21.420329 0.000000 
1.562500 22.228162 0.000000 
1.562500 23.070883 0.000000 
1.562500 23.956661 0.000000 
1.562500 24.887044 0.000000 
1.562500 25.860291 0.000000 
2.604167 21.420329 0.000000 
2.604167 22.228162 0.000000 
2.604167 23.070883 0.000000 
2.604167 23.956661 0.000000 
2.604167 24.887044 0.000000 
2.604167 25.860291 0.000000 
3.645833 21.420329 0.000000 
3.645833 22.228162 0.000000 
3.645833 23.070883 0.000000 
3.645833 23.956661 0.000000 
3.645833 24.887044 0.000000 
3.645833 25.860291 0.000000 
4.687500 21.420329 0.000000 
4.687500 22.228162 0.000000 
4.687500 23.070883 0.000000 
4.687500 23.956661 0.000000 
4.687500 24.887044 0.000000 
4.687500 25.860291 0.000000 
5.729167 21.420329 0.000000 
5.729167 22.228162 0.000000 
5.729167 23.070883 0.000000 
5.729167 23.956661 0.000000 
5.729167 24.887044 0.000000 
5.729167 25.860291 0.000000 

POINT_DATA 288
SCALARS sigma_xx FLOAT 1
LOOKUP_TABLE default
0.000000
0.000000
0.000000
0.000000
0.000000
0.000000
0.000000
0.000000
0.000000
0.000000
0.000000
0.000000
0.000000
0.000000
0.000000
0.000000
0.000000
0.000000
0.000000
0.000000
0.000000
0.000000
0.000000
0.000000
0.000000
0.000000
0.000000
0.000000
0.000000
0.000000
0.000000
0.000000
0.000000
0.000000
0.000000
0.000000
0.000000
0.000000
0.000000
0.000000
0.000000
-0.000000
0.000000
0.000000
0.000000
0.000000
-0.000000
-0.000000
0.000000
0.000000
0.000000
0.000000
-0.000000
-0.000000
0.000000
0.000000
0.000000
0.000000
-0.000000
-0.000000
0.000000
0.000000
0.000000
0.000000
-0.000000
-0.000000
-0.000000
0.000000
0.000000
0.000000
0.000000
-0.000000
0.000000
0.000000
0.000000
-0.000000
0.000000
-0.000000
-0.000000
-0.000000
-0.000000
0.000000
0.000000
0.000000
-0.000000
-0.000000
-0.000000
0.000000
0.000000
0.000000
-0.000000
-0.000000
-0.000000
0.000000
0.000000
0.000000
-0.000000
-0.000000
-0.000000
-0.000000
-0.000000
0.000000
-0.000000
-0.000000
-0.000000
-0.000000
-0.000000
0.000000
-0.000000
-0.000000
-0.000000
-0.000000
-0.000000
-0.000000
-0.000000
-0.000000
-0.000000
0.000000
-0.000000
0.000000
-0.000000
-0.000000
-0.000000
-0.000000
-0.000000
0.000000
-0.000000
-0.000000
-0.000000
0.000000
-0.000000
0.000000
-0.000000
-0.000000
-0.000000
0.000000
-0.000000
0.000000
-0.000000
-0.000000
-0.000000
0.000000
-0.000000
0.000000
-0.000000
-0.000000
-0.000000
-0.000000
-0.000000
-0.000000
0.000000
-0.000000
-0.000000
-0.000000
0.000000
-0.000000
0.000000
-0.000000
-0.000000
-0.000000
0.000000
-0.000000
0.000000
-0.000000
-0.000000
-0.000000
0.000000
-0.000000
0.000000
-0.000000
0.000000
-0.000000
0.000000
-0.000000
>>>>>>> Stashed changes
-0.000000
-0.000000
-0.000000
-0.000000
-0.000000
-0.000000
-0.000000
-0.000000
-0.000000
-0.000000
-0.000000
-0.000000
-0.000000
-0.000000
-0.000000
-0.000000
-0.000000
-0.000000
-0.000000
-0.000000
-0.000000
-0.000000
-0.000000
-0.000000
-0.000000
-0.000000
-0.000000
-0.000000
-0.000000
-0.000000
-0.000000
-0.000000
-0.000000
-0.000000
-0.000000
-0.000000
-0.000000
-0.000000
-0.000000
-0.000000
-0.000000
-0.000000
-0.000000
-0.000000
-0.000000
-0.000000
-0.000000
-0.000000
-0.000000
-0.000000
-0.000000
-0.000000
-0.000000
-0.000000
-0.000000
-0.000000
-0.000000
-0.000000
-0.000000
-0.000000
-0.000000
-0.000000
-0.000000
-0.000000
-0.000000
-0.000000
-0.000000
-0.000000
-0.000000
-0.000000
-0.000000
-0.000000
-0.000000
-0.000000
-0.000000
-0.000000
-0.000000
-0.000000
-0.000000
-0.000000
-0.000000
-0.000000
-0.000000
-0.000000
-0.000000
-0.000000
-0.000000
<<<<<<< Updated upstream
-0.000000
-0.000000
-0.000000
-0.000000
-0.000000
-0.000000
-0.000000
-0.000000
-0.000000
-0.000000
-0.000000
-0.000000
-0.000000
-0.000000
-0.000000
-0.000000
-0.000000
-0.000000
-0.000000
-0.000000
-0.000000
-0.000000
-0.000000
-0.000000
-0.000000
-0.000000
-0.000000
-0.000000
-0.000000
-0.000000
-0.000000
-0.000000
-0.000000
-0.000000
-0.000000
-0.000000
-0.000000
-0.000000
-0.000000
-0.000000
-0.000000
-0.000000
-0.000000
-0.000000
-0.000000
-0.000000
-0.000000
-0.000000
-0.000000
-0.000000
-0.000000
-0.000000
-0.000000
-0.000000
-0.000000
-0.000000
-0.000000
-0.000000
-0.000000
-0.000000
-0.000000
-0.000000
-0.000000
-0.000000
-0.000000
-0.000000
-0.000000
-0.000000
-0.000000
-0.000000
-0.000000
-0.000000
-0.000000
-0.000000
-0.000000
-0.000000
-0.000000
-0.000000
-0.000000
-0.000000
-0.000000
-0.000000
-0.000000
-0.000000
-0.000000
-0.000000
-0.000000
-0.000000
-0.000000
-0.000000
-0.000000
-0.000000
-0.000000
-0.000000
-0.000000
-0.000000
-0.000000
-0.000000
0.000000
-0.000000
-0.000000
-0.000000
-0.000000
-0.000000
-0.000000
-0.000000
-0.000000
0.000000
0.000000
-0.000000
0.000000
-0.000000
-0.000000
-0.000000
-0.000000
-0.000000
-0.000000
-0.000000
-0.000000
-0.000000
-0.000000
-0.000000
-0.000000
-0.000000
-0.000000
-0.000000
-0.000000
-0.000000
-0.000000
-0.000000
-0.000000
-0.000000
-0.000000
-0.000000
-0.000000
-0.000000
-0.000000
-0.000000
-0.000000
-0.000000
-0.000000
-0.000000
-0.000000
-0.000000
-0.000000
-0.000000
-0.000000
-0.000000
-0.000000
-0.000000
-0.000000
-0.000000
-0.000000
-0.000000
-0.000000
-0.000000
-0.000000
-0.000000
-0.000000
-0.000000
-0.000000
-0.000000
-0.000000
-0.000000
-0.000000
-0.000000
-0.000000
-0.000000
-0.000000
-0.000000
-0.000000
-0.000000
-0.000000
-0.000000
-0.000000
-0.000000
-0.000000
-0.000000
-0.000000
-0.000000
-0.000000
-0.000000
-0.000000
-0.000000
-0.000000
-0.000000
-0.000000
-0.000000
-0.000000
-0.000000
-0.000000
-0.000000
-0.000000
-0.000000
-0.000000
-0.000000
-0.000000
-0.000000
-0.000000
-0.000000
-0.000000
-0.000000
-0.000000
-0.000000
-0.000000
-0.000000
-0.000000
-0.000000
-0.000000
-0.000000
-0.000000
-0.000000
-0.000000
-0.000000
-0.000000
-0.000000
-0.000000
-0.000000
-0.000000
-0.000000
-0.000000
-0.000000
-0.000000
-0.000000
-0.000000
-0.000000
-0.000000
-0.000000
-0.000000
-0.000000
-0.000000
-0.000000
-0.000000
-0.000000
-0.000000
-0.000000
-0.000000
-0.000000
-0.000000
-0.000000
-0.000000
-0.000000
-0.000000
-0.000000
-0.000000
-0.000000
-0.000000
-0.000000
-0.000000
-0.000000
-0.000000
-0.000000
-0.000000
-0.000000
-0.000000
-0.000000
-0.000000
-0.000000
-0.000000
-0.000000
-0.000000
-0.000000
-0.000000
-0.000000
-0.000000
-0.000000
-0.000000
-0.000000
-0.000000
-0.000000
-0.000000
-0.000000
-0.000000
-0.000000
-0.000000
-0.000000
-0.000000
-0.000000
-0.000000
-0.000000
-0.000000
-0.000000
-0.000000
-0.000000
-0.000000
-0.000000
-0.000000
-0.000000
-0.000000
-0.000000
-0.000000
-0.000000
-0.000000
-0.000000
-0.000000
-0.000000
-0.000000
-0.000000
-0.000000
-0.000000
-0.000000
-0.000000
-0.000000
-0.000000
-0.000000
-0.000000
-0.000000
-0.000000
-0.000000
-0.000000
-0.000000
-0.000000
-0.000000
-0.000000
-0.000000
-0.000000
-0.000000
-0.000000
-0.000000
-0.000000
-0.000000
-0.000000
-0.000000
-0.000000
-0.000000
-0.000000
-0.000000
-0.000000
-0.000000
-0.000000
-0.000000
-0.000000
-0.000000
-0.000000
-0.000000
-0.000000
-0.000000
-0.000000
-0.000000
-0.000000
0.000000
-0.000000
-0.000000
-0.000000
-0.000000
-0.000000
-0.000000
-0.000000
-0.000000
-0.000000
-0.000000
-0.000000
-0.000000
-0.000000
-0.000000
-0.000000
-0.000000
-0.000000
-0.000000
-0.000000
-0.000000
-0.000000
-0.000000
-0.000000
-0.000000
-0.000000
-0.000000
-0.000000
-0.000000
-0.000000
-0.000000
-0.000000
-0.000000
-0.000000
-0.000000
-0.000000
-0.000000
-0.000000
-0.000000
-0.000000
-0.000000
-0.000000
-0.000000
-0.000000
-0.000000
-0.000000
-0.000000
-0.000000
-0.000000
-0.000000
-0.000000
-0.000000
-0.000000
-0.000000
-0.000000
-0.000000
-0.000000
-0.000000
-0.000000
-0.000000
-0.000000
-0.000000
-0.000000
-0.000000
-0.000000
-0.000000
-0.000000
-0.000000
-0.000000
-0.000000
-0.000000
-0.000000
-0.000000
-0.000000
-0.000000
-0.000000
-0.000000
-0.000000
-0.000000
-0.000000
-0.000000
-0.000000
-0.000000
-0.000000
-0.000000
-0.000000
-0.000000
-0.000000
-0.000000
-0.000000
-0.000000
-0.000000
-0.000000
-0.000000
-0.000000
-0.000000
-0.000000
-0.000000
-0.000000
-0.000000
-0.000000
-0.000000
-0.000000
-0.000000
-0.000000
-0.000000
-0.000000
-0.000000
-0.000000
-0.000000
-0.000000
-0.000000
-0.000000
-0.000000
-0.000000
-0.000000
-0.000000
-0.000000
-0.000000
-0.000000
-0.000000
-0.000000
-0.000000
-0.000000
-0.000000
-0.000000
-0.000000
-0.000000
0.000000
-0.000000
0.000000
-0.000000
-0.000000
-0.000000
-0.000000
-0.000000
-0.000000
-0.000000
-0.000000
-0.000000
-0.000000
-0.000000
-0.000000
-0.000000
-0.000000
-0.000000
-0.000000
-0.000000
-0.000000
-0.000000
-0.000000
-0.000000
-0.000000
-0.000000
-0.000000
-0.000000
-0.000000
-0.000000
-0.000000
-0.000000
-0.000000
-0.000000
-0.000000
-0.000000
-0.000000
-0.000000
-0.000000
-0.000000
-0.000000
-0.000000
0.000000
-0.000000
-0.000000
-0.000000
-0.000000
-0.000000
-0.000000
-0.000000
-0.000000
-0.000000
-0.000000
-0.000000
-0.000000
-0.000000
-0.000000
-0.000000
-0.000000
-0.000000
-0.000000
-0.000000
-0.000000
-0.000000
-0.000000
-0.000000
-0.000000
-0.000000
-0.000000
-0.000000
-0.000000
-0.000000
-0.000000
-0.000000
-0.000000
-0.000000
-0.000000
-0.000000
-0.000000
-0.000000
-0.000000
-0.000000
-0.000000
-0.000000
-0.000000
-0.000000
-0.000000
-0.000000
-0.000000
-0.000000
-0.000000
-0.000000
-0.000000
-0.000000
-0.000000
-0.000000
-0.000000
-0.000000
-0.000000
-0.000000
-0.000000
-0.000000
-0.000000
-0.000000
-0.000000
-0.000000
-0.000000
-0.000000
-0.000000
-0.000000
-0.000000
-0.000000
-0.000000
-0.000000
-0.000000
-0.000000
-0.000000
-0.000000
-0.000000
-0.000000
-0.000000
-0.000000
-0.000000
-0.000000
-0.000000
-0.000000
-0.000000
-0.000000
-0.000000
-0.000000
-0.000000
-0.000000
-0.000000
-0.000000
-0.000000
-0.000000
-0.000000
-0.000000
-0.000000
-0.000000
-0.000000
-0.000000
-0.000000
-0.000000
-0.000000
-0.000000
-0.000000
-0.000000
-0.000000
-0.000000
-0.000000
-0.000000
-0.000000
-0.000000
-0.000000
-0.000000
-0.000000
0.000000
-0.000000
-0.000000
-0.000000
-0.000000
-0.000000
-0.000000
-0.000000
-0.000000
-0.000000
-0.000000
-0.000000
-0.000000
-0.000000
-0.000000
-0.000000
-0.000000
-0.000000
-0.000000
-0.000000
-0.000000
-0.000000
-0.000000
-0.000000
-0.000000
-0.000000
-0.000000
-0.000000
-0.000000
-0.000000
-0.000000
-0.000000
-0.000000
-0.000000
-0.000000
-0.000000
-0.000000
-0.000000
-0.000000
-0.000000
-0.000000
-0.000000
-0.000000
-0.000000
-0.000000
-0.000000
-0.000000
-0.000000
-0.000000
-0.000000
-0.000000
-0.000000
-0.000000
-0.000000
-0.000000
-0.000000
-0.000000
-0.000000
-0.000000
-0.000000
0.000000
-0.000000
-0.000000
-0.000000
-0.000000
-0.000000
-0.000000
-0.000000
-0.000000
-0.000000
-0.000000
-0.000000
-0.000000
-0.000000
-0.000000
-0.000000
-0.000000
-0.000000
-0.000000
-0.000000
-0.000000
-0.000000
-0.000000
-0.000000
-0.000000
-0.000000
-0.000000
-0.000000
-0.000000
-0.000000
-0.000000
-0.000000
-0.000000
-0.000000
-0.000000
-0.000000
-0.000000
-0.000000
-0.000000
0.000000
-0.000000
-0.000000
-0.000000
-0.000000
-0.000000
-0.000000
-0.000000
-0.000000
-0.000000
-0.000000
-0.000000
-0.000000
-0.000000
-0.000000
-0.000000
-0.000000
-0.000000
-0.000000
-0.000000
-0.000000
-0.000000
-0.000000
-0.000000
-0.000000
-0.000000
-0.000000
-0.000000
-0.000000
-0.000000
-0.000000
-0.000000
-0.000000
-0.000000
-0.000000
0.000000
-0.000000
-0.000000
-0.000000
-0.000000
-0.000000
-0.000000
-0.000000
-0.000000
-0.000000
-0.000000
-0.000000
-0.000000
-0.000000
-0.000000
-0.000000
-0.000000
-0.000000
-0.000000
-0.000000
-0.000000
-0.000000
-0.000000
-0.000000
-0.000000