# vtk DataFile Version 2.0
MATLAB generated vtk file, WMC
ASCII
DATASET UNSTRUCTURED_GRID
<<<<<<< Updated upstream
POINTS 2048 double
0.024414 0.010922 0.000000 
0.024414 0.032767 0.000000 
0.073242 0.010922 0.000000 
0.073242 0.032767 0.000000 
0.024414 0.054615 0.000000 
0.024414 0.076475 0.000000 
0.073242 0.054615 0.000000 
0.073242 0.076475 0.000000 
0.024414 0.098347 0.000000 
0.024414 0.120229 0.000000 
0.073242 0.098347 0.000000 
0.073242 0.120229 0.000000 
0.024414 0.142119 0.000000 
0.024414 0.164018 0.000000 
0.073242 0.142119 0.000000 
0.073242 0.164018 0.000000 
0.024414 0.185928 0.000000 
0.024414 0.207848 0.000000 
0.073242 0.185928 0.000000 
0.073242 0.207848 0.000000 
0.024414 0.229777 0.000000 
0.024414 0.251716 0.000000 
0.073242 0.229777 0.000000 
0.073242 0.251716 0.000000 
0.024414 0.273664 0.000000 
0.024414 0.295622 0.000000 
0.073242 0.273664 0.000000 
0.073242 0.295622 0.000000 
0.024414 0.317590 0.000000 
0.024414 0.339567 0.000000 
0.073242 0.317590 0.000000 
0.073242 0.339567 0.000000 
0.024414 0.361553 0.000000 
0.024414 0.383549 0.000000 
0.073242 0.361553 0.000000 
0.073242 0.383549 0.000000 
0.024414 0.405556 0.000000 
0.024414 0.427572 0.000000 
0.073242 0.405556 0.000000 
0.073242 0.427572 0.000000 
0.024414 0.449597 0.000000 
0.024414 0.471633 0.000000 
0.073242 0.449597 0.000000 
0.073242 0.471633 0.000000 
0.024414 0.493679 0.000000 
0.024414 0.515735 0.000000 
0.073242 0.493679 0.000000 
0.073242 0.515735 0.000000 
0.024414 0.537799 0.000000 
0.024414 0.559873 0.000000 
0.073242 0.537799 0.000000 
0.073242 0.559873 0.000000 
0.024414 0.581957 0.000000 
0.024414 0.604052 0.000000 
0.073242 0.581957 0.000000 
0.073242 0.604052 0.000000 
0.024414 0.626155 0.000000 
0.024414 0.648268 0.000000 
0.073242 0.626155 0.000000 
0.073242 0.648268 0.000000 
0.024414 0.670391 0.000000 
0.024414 0.692525 0.000000 
0.073242 0.670391 0.000000 
0.073242 0.692525 0.000000 
0.024414 0.714668 0.000000 
0.024414 0.736821 0.000000 
0.073242 0.714668 0.000000 
0.073242 0.736821 0.000000 
0.024414 0.758984 0.000000 
0.024414 0.781156 0.000000 
0.073242 0.758984 0.000000 
0.073242 0.781156 0.000000 
0.024414 0.803340 0.000000 
0.024414 0.825532 0.000000 
0.073242 0.803340 0.000000 
0.073242 0.825532 0.000000 
0.024414 0.847735 0.000000 
0.024414 0.869947 0.000000 
0.073242 0.847735 0.000000 
0.073242 0.869947 0.000000 
0.024414 0.892170 0.000000 
0.024414 0.914402 0.000000 
0.073242 0.892170 0.000000 
0.073242 0.914402 0.000000 
0.024414 0.936644 0.000000 
0.024414 0.958896 0.000000 
0.073242 0.936644 0.000000 
0.073242 0.958896 0.000000 
0.024414 0.981159 0.000000 
0.024414 1.003431 0.000000 
0.073242 0.981159 0.000000 
0.073242 1.003431 0.000000 
0.024414 1.025713 0.000000 
0.024414 1.048005 0.000000 
0.073242 1.025713 0.000000 
0.073242 1.048005 0.000000 
0.024414 1.070308 0.000000 
0.024414 1.092621 0.000000 
0.073242 1.070308 0.000000 
0.073242 1.092621 0.000000 
0.024414 1.114942 0.000000 
0.024414 1.137276 0.000000 
0.073242 1.114942 0.000000 
0.073242 1.137276 0.000000 
0.024414 1.159618 0.000000 
0.024414 1.181971 0.000000 
0.073242 1.159618 0.000000 
0.073242 1.181971 0.000000 
0.024414 1.204334 0.000000 
0.024414 1.226708 0.000000 
0.073242 1.204334 0.000000 
0.073242 1.226708 0.000000 
0.024414 1.249090 0.000000 
0.024414 1.271483 0.000000 
0.073242 1.249090 0.000000 
0.073242 1.271483 0.000000 
0.024414 1.293886 0.000000 
0.024414 1.316299 0.000000 
0.073242 1.293886 0.000000 
0.073242 1.316299 0.000000 
0.024414 1.338723 0.000000 
0.024414 1.361155 0.000000 
0.073242 1.338723 0.000000 
0.073242 1.361155 0.000000 
0.024414 1.383600 0.000000 
0.024414 1.406054 0.000000 
0.073242 1.383600 0.000000 
0.073242 1.406054 0.000000 
0.024414 1.428519 0.000000 
0.024414 1.450993 0.000000 
0.073242 1.428519 0.000000 
0.073242 1.450993 0.000000 
0.024414 1.473480 0.000000 
0.024414 1.495974 0.000000 
0.073242 1.473480 0.000000 
0.073242 1.495974 0.000000 
0.024414 1.518479 0.000000 
0.024414 1.540995 0.000000 
0.073242 1.518479 0.000000 
0.073242 1.540995 0.000000 
0.024414 1.563521 0.000000 
0.024414 1.586059 0.000000 
0.073242 1.563521 0.000000 
0.073242 1.586059 0.000000 
0.024414 1.608606 0.000000 
0.024414 1.631162 0.000000 
0.073242 1.608606 0.000000 
0.073242 1.631162 0.000000 
0.024414 1.653729 0.000000 
0.024414 1.676307 0.000000 
0.073242 1.653729 0.000000 
0.073242 1.676307 0.000000 
0.024414 1.698895 0.000000 
0.024414 1.721493 0.000000 
0.073242 1.698895 0.000000 
0.073242 1.721493 0.000000 
0.024414 1.744103 0.000000 
0.024414 1.766721 0.000000 
0.073242 1.744103 0.000000 
0.073242 1.766721 0.000000 
0.024414 1.789349 0.000000 
0.024414 1.811990 0.000000 
0.073242 1.789349 0.000000 
0.073242 1.811990 0.000000 
0.024414 1.834641 0.000000 
0.024414 1.857302 0.000000 
0.073242 1.834641 0.000000 
0.073242 1.857302 0.000000 
0.024414 1.879974 0.000000 
0.024414 1.902655 0.000000 
0.073242 1.879974 0.000000 
0.073242 1.902655 0.000000 
0.024414 1.925348 0.000000 
0.024414 1.948051 0.000000 
0.073242 1.925348 0.000000 
0.073242 1.948051 0.000000 
0.024414 1.970766 0.000000 
0.024414 1.993489 0.000000 
0.073242 1.970766 0.000000 
0.073242 1.993489 0.000000 
0.024414 2.016223 0.000000 
0.024414 2.038969 0.000000 
0.073242 2.016223 0.000000 
0.073242 2.038969 0.000000 
0.024414 2.061724 0.000000 
0.024414 2.084490 0.000000 
0.073242 2.061724 0.000000 
0.073242 2.084490 0.000000 
0.024414 2.107269 0.000000 
0.024414 2.130055 0.000000 
0.073242 2.107269 0.000000 
0.073242 2.130055 0.000000 
0.024414 2.152852 0.000000 
0.024414 2.175661 0.000000 
0.073242 2.152852 0.000000 
0.073242 2.175661 0.000000 
0.024414 2.198480 0.000000 
0.024414 2.221309 0.000000 
0.073242 2.198480 0.000000 
0.073242 2.221309 0.000000 
0.024414 2.244149 0.000000 
0.024414 2.267001 0.000000 
0.073242 2.244149 0.000000 
0.073242 2.267001 0.000000 
0.024414 2.289863 0.000000 
0.024414 2.312735 0.000000 
0.073242 2.289863 0.000000 
0.073242 2.312735 0.000000 
0.024414 2.335620 0.000000 
0.024414 2.358514 0.000000 
0.073242 2.335620 0.000000 
0.073242 2.358514 0.000000 
0.024414 2.381417 0.000000 
0.024414 2.404333 0.000000 
0.073242 2.381417 0.000000 
0.073242 2.404333 0.000000 
0.024414 2.427261 0.000000 
0.024414 2.450198 0.000000 
0.073242 2.427261 0.000000 
0.073242 2.450198 0.000000 
0.024414 2.473144 0.000000 
0.024414 2.496104 0.000000 
0.073242 2.473144 0.000000 
0.073242 2.496104 0.000000 
0.024414 2.519074 0.000000 
0.024414 2.542054 0.000000 
0.073242 2.519074 0.000000 
0.073242 2.542054 0.000000 
0.024414 2.565045 0.000000 
0.024414 2.588047 0.000000 
0.073242 2.565045 0.000000 
0.073242 2.588047 0.000000 
0.024414 2.611060 0.000000 
0.024414 2.634082 0.000000 
0.073242 2.611060 0.000000 
0.073242 2.634082 0.000000 
0.024414 2.657118 0.000000 
0.024414 2.680164 0.000000 
0.073242 2.657118 0.000000 
0.073242 2.680164 0.000000 
0.024414 2.703220 0.000000 
0.024414 2.726288 0.000000 
0.073242 2.703220 0.000000 
0.073242 2.726288 0.000000 
0.024414 2.749367 0.000000 
0.024414 2.772457 0.000000 
0.073242 2.749367 0.000000 
0.073242 2.772457 0.000000 
0.024414 2.795556 0.000000 
0.024414 2.818668 0.000000 
0.073242 2.795556 0.000000 
0.073242 2.818668 0.000000 
0.024414 2.841790 0.000000 
0.024414 2.864924 0.000000 
0.073242 2.841790 0.000000 
0.073242 2.864924 0.000000 
0.024414 2.888067 0.000000 
0.024414 2.911225 0.000000 
0.073242 2.888067 0.000000 
0.073242 2.911225 0.000000 
0.024414 2.934392 0.000000 
0.024414 2.957568 0.000000 
0.073242 2.934392 0.000000 
0.073242 2.957568 0.000000 
0.024414 2.980756 0.000000 
0.024414 3.003958 0.000000 
0.073242 2.980756 0.000000 
0.073242 3.003958 0.000000 
0.024414 3.027169 0.000000 
0.024414 3.050390 0.000000 
0.073242 3.027169 0.000000 
0.073242 3.050390 0.000000 
0.024414 3.073623 0.000000 
0.024414 3.096867 0.000000 
0.073242 3.073623 0.000000 
0.073242 3.096867 0.000000 
0.024414 3.120124 0.000000 
0.024414 3.143390 0.000000 
0.073242 3.120124 0.000000 
0.073242 3.143390 0.000000 
0.024414 3.166668 0.000000 
0.024414 3.189960 0.000000 
0.073242 3.166668 0.000000 
0.073242 3.189960 0.000000 
0.024414 3.213259 0.000000 
0.024414 3.236569 0.000000 
0.073242 3.213259 0.000000 
0.073242 3.236569 0.000000 
0.024414 3.259893 0.000000 
0.024414 3.283227 0.000000 
0.073242 3.259893 0.000000 
0.073242 3.283227 0.000000 
0.024414 3.306573 0.000000 
0.024414 3.329929 0.000000 
0.073242 3.306573 0.000000 
0.073242 3.329929 0.000000 
0.024414 3.353298 0.000000 
0.024414 3.376678 0.000000 
0.073242 3.353298 0.000000 
0.073242 3.376678 0.000000 
0.024414 3.400068 0.000000 
0.024414 3.423470 0.000000 
0.073242 3.400068 0.000000 
0.073242 3.423470 0.000000 
0.024414 3.446882 0.000000 
0.024414 3.470309 0.000000 
0.073242 3.446882 0.000000 
0.073242 3.470309 0.000000 
0.024414 3.493745 0.000000 
0.024414 3.517192 0.000000 
0.073242 3.493745 0.000000 
0.073242 3.517192 0.000000 
0.024414 3.540652 0.000000 
0.024414 3.564122 0.000000 
0.073242 3.540652 0.000000 
0.073242 3.564122 0.000000 
0.024414 3.587603 0.000000 
0.024414 3.611096 0.000000 
0.073242 3.587603 0.000000 
0.073242 3.611096 0.000000 
0.024414 3.634603 0.000000 
0.024414 3.658119 0.000000 
0.073242 3.634603 0.000000 
0.073242 3.658119 0.000000 
0.024414 3.681649 0.000000 
0.024414 3.705187 0.000000 
0.073242 3.681649 0.000000 
0.073242 3.705187 0.000000 
0.024414 3.728738 0.000000 
0.024414 3.752301 0.000000 
0.073242 3.728738 0.000000 
0.073242 3.752301 0.000000 
0.024414 3.775875 0.000000 
0.024414 3.799460 0.000000 
0.073242 3.775875 0.000000 
0.073242 3.799460 0.000000 
0.024414 3.823058 0.000000 
0.024414 3.846667 0.000000 
0.073242 3.823058 0.000000 
0.073242 3.846667 0.000000 
0.024414 3.870288 0.000000 
0.024414 3.893918 0.000000 
0.073242 3.870288 0.000000 
0.073242 3.893918 0.000000 
0.024414 3.917563 0.000000 
0.024414 3.941219 0.000000 
0.073242 3.917563 0.000000 
0.073242 3.941219 0.000000 
0.024414 3.964884 0.000000 
0.024414 3.988564 0.000000 
0.073242 3.964884 0.000000 
0.073242 3.988564 0.000000 
[...]
POINT_DATA 2048
=======
POINTS 288 double
0.520833 0.240763 0.000000 
0.520833 0.722288 0.000000 
0.520833 1.203813 0.000000 
0.520833 1.685338 0.000000 
0.520833 2.166863 0.000000 
0.520833 2.648388 0.000000 
1.562500 0.240763 0.000000 
1.562500 0.722288 0.000000 
1.562500 1.203813 0.000000 
1.562500 1.685338 0.000000 
1.562500 2.166863 0.000000 
1.562500 2.648388 0.000000 
2.604167 0.240763 0.000000 
2.604167 0.722288 0.000000 
2.604167 1.203813 0.000000 
2.604167 1.685338 0.000000 
2.604167 2.166863 0.000000 
2.604167 2.648388 0.000000 
3.645833 0.240763 0.000000 
3.645833 0.722288 0.000000 
3.645833 1.203813 0.000000 
3.645833 1.685338 0.000000 
3.645833 2.166863 0.000000 
3.645833 2.648388 0.000000 
4.687500 0.240763 0.000000 
4.687500 0.722288 0.000000 
4.687500 1.203813 0.000000 
4.687500 1.685338 0.000000 
4.687500 2.166863 0.000000 
4.687500 2.648388 0.000000 
5.729167 0.240763 0.000000 
5.729167 0.722288 0.000000 
5.729167 1.203813 0.000000 
5.729167 1.685338 0.000000 
5.729167 2.166863 0.000000 
5.729167 2.648388 0.000000 
0.520833 3.133004 0.000000 
0.520833 3.625834 0.000000 
0.520833 4.126349 0.000000 
0.520833 4.634173 0.000000 
0.520833 5.148723 0.000000 
0.520833 5.669031 0.000000 
1.562500 3.133004 0.000000 
1.562500 3.625834 0.000000 
1.562500 4.126349 0.000000 
1.562500 4.634173 0.000000 
1.562500 5.148723 0.000000 
1.562500 5.669031 0.000000 
2.604167 3.133004 0.000000 
2.604167 3.625834 0.000000 
2.604167 4.126349 0.000000 
2.604167 4.634173 0.000000 
2.604167 5.148723 0.000000 
2.604167 5.669031 0.000000 
3.645833 3.133004 0.000000 
3.645833 3.625834 0.000000 
3.645833 4.126349 0.000000 
3.645833 4.634173 0.000000 
3.645833 5.148723 0.000000 
3.645833 5.669031 0.000000 
4.687500 3.133004 0.000000 
4.687500 3.625834 0.000000 
4.687500 4.126349 0.000000 
4.687500 4.634173 0.000000 
4.687500 5.148723 0.000000 
4.687500 5.669031 0.000000 
5.729167 3.133004 0.000000 
5.729167 3.625834 0.000000 
5.729167 4.126349 0.000000 
5.729167 4.634173 0.000000 
5.729167 5.148723 0.000000 
5.729167 5.669031 0.000000 
0.520833 6.197221 0.000000 
0.520833 6.733114 0.000000 
0.520833 7.274218 0.000000 
0.520833 7.820392 0.000000 
0.520833 8.371466 0.000000 
0.520833 8.926937 0.000000 
1.562500 6.197221 0.000000 
1.562500 6.733114 0.000000 
1.562500 7.274218 0.000000 
1.562500 7.820392 0.000000 
1.562500 8.371466 0.000000 
1.562500 8.926937 0.000000 
2.604167 6.197221 0.000000 
2.604167 6.733114 0.000000 
2.604167 7.274218 0.000000 
2.604167 7.820392 0.000000 
2.604167 8.371466 0.000000 
2.604167 8.926937 0.000000 
3.645833 6.197221 0.000000 
3.645833 6.733114 0.000000 
3.645833 7.274218 0.000000 
3.645833 7.820392 0.000000 
3.645833 8.371466 0.000000 
3.645833 8.926937 0.000000 
4.687500 6.197221 0.000000 
4.687500 6.733114 0.000000 
4.687500 7.274218 0.000000 
4.687500 7.820392 0.000000 
4.687500 8.371466 0.000000 
4.687500 8.926937 0.000000 
5.729167 6.197221 0.000000 
5.729167 6.733114 0.000000 
5.729167 7.274218 0.000000 
5.729167 7.820392 0.000000 
5.729167 8.371466 0.000000 
5.729167 8.926937 0.000000 
0.520833 9.489336 0.000000 
0.520833 10.059958 0.000000 
0.520833 10.639526 0.000000 
0.520833 11.227961 0.000000 
0.520833 11.825144 0.000000 
0.520833 12.430846 0.000000 
1.562500 9.489336 0.000000 
1.562500 10.059958 0.000000 
1.562500 10.639526 0.000000 
1.562500 11.227961 0.000000 
1.562500 11.825144 0.000000 
1.562500 12.430846 0.000000 
2.604167 9.489336 0.000000 
2.604167 10.059958 0.000000 
2.604167 10.639526 0.000000 
2.604167 11.227961 0.000000 
2.604167 11.825144 0.000000 
2.604167 12.430846 0.000000 
3.645833 9.489336 0.000000 
3.645833 10.059958 0.000000 
3.645833 10.639526 0.000000 
3.645833 11.227961 0.000000 
3.645833 11.825144 0.000000 
3.645833 12.430846 0.000000 
4.687500 9.489336 0.000000 
4.687500 10.059958 0.000000 
4.687500 10.639526 0.000000 
4.687500 11.227961 0.000000 
4.687500 11.825144 0.000000 
4.687500 12.430846 0.000000 
5.729167 9.489336 0.000000 
5.729167 10.059958 0.000000 
5.729167 10.639526 0.000000 
5.729167 11.227961 0.000000 
5.729167 11.825144 0.000000 
5.729167 12.430846 0.000000 
0.520833 13.045479 0.000000 
0.520833 13.668406 0.000000 
0.520833 14.300756 0.000000 
0.520833 14.941426 0.000000 
0.520833 15.591352 0.000000 
0.520833 16.250709 0.000000 
1.562500 13.045479 0.000000 
1.562500 13.668406 0.000000 
1.562500 14.300756 0.000000 
1.562500 14.941426 0.000000 
1.562500 15.591352 0.000000 
1.562500 16.250709 0.000000 
2.604167 13.045479 0.000000 
2.604167 13.668406 0.000000 
2.604167 14.300756 0.000000 
2.604167 14.941426 0.000000 
2.604167 15.591352 0.000000 
2.604167 16.250709 0.000000 
3.645833 13.045479 0.000000 
3.645833 13.668406 0.000000 
3.645833 14.300756 0.000000 
3.645833 14.941426 0.000000 
3.645833 15.591352 0.000000 
3.645833 16.250709 0.000000 
4.687500 13.045479 0.000000 
4.687500 13.668406 0.000000 
4.687500 14.300756 0.000000 
4.687500 14.941426 0.000000 
4.687500 15.591352 0.000000 
4.687500 16.250709 0.000000 
5.729167 13.045479 0.000000 
5.729167 13.668406 0.000000 
5.729167 14.300756 0.000000 
5.729167 14.941426 0.000000 
5.729167 15.591352 0.000000 
5.729167 16.250709 0.000000 
0.520833 16.922345 0.000000 
0.520833 17.607623 0.000000 
0.520833 18.307694 0.000000 
0.520833 19.021383 0.000000 
0.520833 19.746912 0.000000 
0.520833 20.481848 0.000000 
1.562500 16.922345 0.000000 
1.562500 17.607623 0.000000 
1.562500 18.307694 0.000000 
1.562500 19.021383 0.000000 
1.562500 19.746912 0.000000 
1.562500 20.481848 0.000000 
2.604167 16.922345 0.000000 
2.604167 17.607623 0.000000 
2.604167 18.307694 0.000000 
2.604167 19.021383 0.000000 
2.604167 19.746912 0.000000 
2.604167 20.481848 0.000000 
3.645833 16.922345 0.000000 
3.645833 17.607623 0.000000 
3.645833 18.307694 0.000000 
3.645833 19.021383 0.000000 
3.645833 19.746912 0.000000 
3.645833 20.481848 0.000000 
4.687500 16.922345 0.000000 
4.687500 17.607623 0.000000 
4.687500 18.307694 0.000000 
4.687500 19.021383 0.000000 
4.687500 19.746912 0.000000 
4.687500 20.481848 0.000000 
5.729167 16.922345 0.000000 
5.729167 17.607623 0.000000 
5.729167 18.307694 0.000000 
5.729167 19.021383 0.000000 
5.729167 19.746912 0.000000 
5.729167 20.481848 0.000000 
0.520833 21.231878 0.000000 
0.520833 21.998989 0.000000 
0.520833 22.782729 0.000000 
0.520833 23.585937 0.000000 
0.520833 24.410129 0.000000 
0.520833 25.254366 0.000000 
1.562500 21.231878 0.000000 
1.562500 21.998989 0.000000 
1.562500 22.782729 0.000000 
1.562500 23.585937 0.000000 
1.562500 24.410129 0.000000 
1.562500 25.254366 0.000000 
2.604167 21.231878 0.000000 
2.604167 21.998989 0.000000 
2.604167 22.782729 0.000000 
2.604167 23.585937 0.000000 
2.604167 24.410129 0.000000 
2.604167 25.254366 0.000000 
3.645833 21.231878 0.000000 
3.645833 21.998989 0.000000 
3.645833 22.782729 0.000000 
3.645833 23.585937 0.000000 
3.645833 24.410129 0.000000 
3.645833 25.254366 0.000000 
4.687500 21.231878 0.000000 
4.687500 21.998989 0.000000 
4.687500 22.782729 0.000000 
4.687500 23.585937 0.000000 
4.687500 24.410129 0.000000 
4.687500 25.254366 0.000000 
5.729167 21.231878 0.000000 
5.729167 21.998989 0.000000 
5.729167 22.782729 0.000000 
5.729167 23.585937 0.000000 
5.729167 24.410129 0.000000 
5.729167 25.254366 0.000000 
0.520833 26.120371 0.000000 
0.520833 27.008808 0.000000 
0.520833 27.919933 0.000000 
0.520833 28.859650 0.000000 
0.520833 29.828202 0.000000 
0.520833 30.830898 0.000000 
1.562500 26.120371 0.000000 
1.562500 27.008808 0.000000 
1.562500 27.919933 0.000000 
1.562500 28.859650 0.000000 
1.562500 29.828202 0.000000 
1.562500 30.830898 0.000000 
2.604167 26.120371 0.000000 
2.604167 27.008808 0.000000 
2.604167 27.919933 0.000000 
2.604167 28.859650 0.000000 
2.604167 29.828202 0.000000 
2.604167 30.830898 0.000000 
3.645833 26.120371 0.000000 
3.645833 27.008808 0.000000 
3.645833 27.919933 0.000000 
3.645833 28.859650 0.000000 
3.645833 29.828202 0.000000 
3.645833 30.830898 0.000000 
4.687500 26.120371 0.000000 
4.687500 27.008808 0.000000 
4.687500 27.919933 0.000000 
4.687500 28.859650 0.000000 
4.687500 29.828202 0.000000 
4.687500 30.830898 0.000000 
5.729167 26.120371 0.000000 
5.729167 27.008808 0.000000 
5.729167 27.919933 0.000000 
5.729167 28.859650 0.000000 
5.729167 29.828202 0.000000 
5.729167 30.830898 0.000000 

POINT_DATA 288
>>>>>>> Stashed changes
SCALARS sigma_xx FLOAT 1
LOOKUP_TABLE default
0.000000
0.000000
0.000000
0.000000
<<<<<<< Updated upstream
-0.000000
-0.000000
-0.000000
-0.000000
-0.000000
-0.000000
-0.000000
-0.000000
0.000000
0.000000
0.000000
0.000000
-0.000000
-0.000000
-0.000000
=======
0.000000
>>>>>>> Stashed changes
-0.000000
0.000000
0.000000
0.000000
0.000000
<<<<<<< Updated upstream
-0.000000
=======
>>>>>>> Stashed changes
0.000000
-0.000000
0.000000
0.000000
<<<<<<< Updated upstream
-0.000000
0.000000
-0.000000
-0.000000
-0.000000
-0.000000
-0.000000
-0.000000
-0.000000
-0.000000
-0.000000
-0.000000
-0.000000
-0.000000
0.000000
-0.000000
-0.000000
-0.000000
-0.000000
-0.000000
-0.000000
-0.000000
-0.000000
0.000000
-0.000000
0.000000
-0.000000
-0.000000
-0.000000
-0.000000
-0.000000
-0.000000
-0.000000
-0.000000
-0.000000
-0.000000
-0.000000
-0.000000
-0.000000
-0.000000
0.000000
-0.000000
-0.000000
-0.000000
-0.000000
-0.000000
-0.000000
0.000000
-0.000000
0.000000
-0.000000
0.000000
-0.000000
0.000000
-0.000000
-0.000000
-0.000000
-0.000000
-0.000000
-0.000000
-0.000000
-0.000000
-0.000000
-0.000000
0.000000
-0.000000
0.000000
-0.000000
-0.000000
-0.000000
-0.000000
-0.000000
-0.000000
-0.000000
-0.000000
-0.000000
-0.000000
-0.000000
-0.000000
-0.000000
-0.000000
-0.000000
-0.000000
-0.000000
-0.000000
0.000000
-0.000000
-0.000000
-0.000000
-0.000000
-0.000000
-0.000000
-0.000000
-0.000000
-0.000000
-0.000000
0.000000
-0.000000
-0.000000
-0.000000
0.000000
-0.000000
0.000000
-0.000000
-0.000000
-0.000000
-0.000000
-0.000000
-0.000000
-0.000000
-0.000000
-0.000000
-0.000000
-0.000000
-0.000000
-0.000000
-0.000000
-0.000000
-0.000000
-0.000000
-0.000000
-0.000000
-0.000000
-0.000000
-0.000000
-0.000000
-0.000000
-0.000000
-0.000000
-0.000000
-0.000000
-0.000000
-0.000000
-0.000000
-0.000000
-0.000000
-0.000000
-0.000000
-0.000000
-0.000000
-0.000000
-0.000000
-0.000000
-0.000000
-0.000000
-0.000000
-0.000000
-0.000000
-0.000000
-0.000000
=======
0.000000
0.000000
-0.000000
-0.000000
0.000000
0.000000
0.000000
0.000000
-0.000000
-0.000000
0.000000
0.000000
0.000000
0.000000
-0.000000
-0.000000
0.000000
0.000000
0.000000
0.000000
0.000000
>>>>>>> Stashed changes
-0.000000
-0.000000
-0.000000
-0.000000
-0.000000
-0.000000
-0.000000
-0.000000
-0.000000
-0.000000
-0.000000
-0.000000
-0.000000
-0.000000
-0.000000
-0.000000
-0.000000
-0.000000
-0.000000
-0.000000
-0.000000
-0.000000
-0.000000
-0.000000
-0.000000
-0.000000
-0.000000
-0.000000
-0.000000
-0.000000
-0.000000
-0.000000
-0.000000
-0.000000
-0.000000
0.000000
-0.000000
0.000000
<<<<<<< Updated upstream
-0.000000
0.000000
-0.000000
-0.000000
-0.000000
-0.000000
-0.000000
-0.000000
-0.000000
-0.000000
-0.000000
-0.000000
-0.000000
-0.000000
-0.000000
-0.000000
-0.000000
-0.000000
-0.000000
-0.000000
0.000000
-0.000000
0.000000
-0.000000
-0.000000
-0.000000
-0.000000
-0.000000
-0.000000
-0.000000
-0.000000
-0.000000
-0.000000
-0.000000
-0.000000
-0.000000
-0.000000
-0.000000
-0.000000
-0.000000
-0.000000
-0.000000
-0.000000
-0.000000
-0.000000
-0.000000
-0.000000
-0.000000
-0.000000
-0.000000
-0.000000
-0.000000
-0.000000
-0.000000
-0.000000
-0.000000
-0.000000
=======
0.000000
0.000000
-0.000000
0.000000
>>>>>>> Stashed changes
0.000000
-0.000000
-0.000000
-0.000000
-0.000000
-0.000000
-0.000000
-0.000000
<<<<<<< Updated upstream
0.000000
-0.000000
=======
>>>>>>> Stashed changes
-0.000000
-0.000000
-0.000000
-0.000000
-0.000000
-0.000000
-0.000000
-0.000000
-0.000000
-0.000000
-0.000000
-0.000000
-0.000000
-0.000000
-0.000000
-0.000000
-0.000000
<<<<<<< Updated upstream
0.000000
-0.000000
0.000000
=======
-0.000000
>>>>>>> Stashed changes
-0.000000
-0.000000
-0.000000
-0.000000
-0.000000
<<<<<<< Updated upstream
0.000000
=======
>>>>>>> Stashed changes
-0.000000
0.000000
-0.000000
-0.000000
-0.000000
<<<<<<< Updated upstream
-0.000000
-0.000000
-0.000000
-0.000000
-0.000000
-0.000000
-0.000000
-0.000000
-0.000000
-0.000000
-0.000000
-0.000000
-0.000000
-0.000000
-0.000000
-0.000000
-0.000000
-0.000000
=======
>>>>>>> Stashed changes
0.000000
-0.000000
-0.000000
-0.000000
-0.000000
-0.000000
-0.000000
-0.000000
-0.000000
-0.000000
-0.000000
-0.000000
-0.000000
-0.000000
-0.000000
-0.000000
-0.000000
-0.000000
-0.000000
-0.000000
-0.000000
-0.000000
-0.000000
-0.000000
-0.000000
-0.000000
-0.000000
-0.000000
-0.000000
-0.000000
-0.000000
-0.000000
-0.000000
-0.000000
-0.000000
<<<<<<< Updated upstream
=======
0.000000
0.000000
>>>>>>> Stashed changes
-0.000000
-0.000000
-0.000000
-0.000000
-0.000000
-0.000000
-0.000000
-0.000000
-0.000000
-0.000000
-0.000000
-0.000000
-0.000000
-0.000000
-0.000000
-0.000000
-0.000000
-0.000000
-0.000000
-0.000000
-0.000000
-0.000000
-0.000000
-0.000000
-0.000000
-0.000000
-0.000000
-0.000000
-0.000000
-0.000000
<<<<<<< Updated upstream
-0.000000
-0.000000
-0.000000
-0.000000
-0.000000
-0.000000
-0.000000
-0.000000
-0.000000
-0.000000
-0.000000
-0.000000
-0.000000
-0.000000
-0.000000
-0.000000
-0.000000
-0.000000
-0.000000
-0.000000
-0.000000
-0.000000
0.000000
-0.000000
=======
>>>>>>> Stashed changes
0.000000
-0.000000
-0.000000
-0.000000
-0.000000
-0.000000
-0.000000
0.000000
-0.000000
<<<<<<< Updated upstream
0.000000
-0.000000
-0.000000
-0.000000
-0.000000
-0.000000
-0.000000
-0.000000
-0.000000
-0.000000
-0.000000
-0.000000
-0.000000
0.000000
-0.000000
0.000000
-0.000000
-0.000000
-0.000000
-0.000000
0.000000
-0.000000
-0.000000
-0.000000
-0.000000
-0.000000
-0.000000
-0.000000
-0.000000
-0.000000
-0.000000
-0.000000
-0.000000
-0.000000
-0.000000
-0.000000
-0.000000
-0.000000
-0.000000
-0.000000
-0.000000
-0.000000
-0.000000
-0.000000
-0.000000
-0.000000
-0.000000
-0.000000
-0.000000
-0.000000
-0.000000
-0.000000
-0.000000
-0.000000
-0.000000
-0.000000
-0.000000
-0.000000
-0.000000
-0.000000
-0.000000
-0.000000
-0.000000
-0.000000
-0.000000
-0.000000
-0.000000
-0.000000
-0.000000
-0.000000
0.000000
-0.000000
-0.000000
-0.000000
-0.000000
-0.000000
-0.000000
-0.000000
-0.000000
-0.000000
-0.000000
-0.000000
-0.000000
-0.000000
0.000000
-0.000000
-0.000000
-0.000000
0.000000
-0.000000
-0.000000
-0.000000
-0.000000
-0.000000
-0.000000
-0.000000
-0.000000
-0.000000
-0.000000
-0.000000
-0.000000
-0.000000
-0.000000
-0.000000
-0.000000
-0.000000
-0.000000
-0.000000
-0.000000
-0.000000
-0.000000
-0.000000
-0.000000
-0.000000
-0.000000
-0.000000
-0.000000
-0.000000
-0.000000
-0.000000
-0.000000
-0.000000
-0.000000
-0.000000
-0.000000
-0.000000
-0.000000
-0.000000
-0.000000
-0.000000
-0.000000
-0.000000
-0.000000
-0.000000
-0.000000
-0.000000
-0.000000
-0.000000
-0.000000
-0.000000
-0.000000
-0.000000
-0.000000
-0.000000
-0.000000
-0.000000
-0.000000
-0.000000
-0.000000
-0.000000
-0.000000
-0.000000
-0.000000
-0.000000
-0.000000
-0.000000
-0.000000
-0.000000
-0.000000
-0.000000
-0.000000
-0.000000
-0.000000
-0.000000
-0.000000
-0.000000
-0.000000
-0.000000
-0.000000
-0.000000
-0.000000
-0.000000
-0.000000
-0.000000
-0.000000
-0.000000
-0.000000
-0.000000
-0.000000
-0.000000
-0.000000
-0.000000
-0.000000
-0.000000
-0.000000
-0.000000
-0.000000
-0.000000
-0.000000
-0.000000
-0.000000
-0.000000
-0.000000
-0.000000
-0.000000
-0.000000
-0.000000
-0.000000
-0.000000
-0.000000
-0.000000
-0.000000
-0.000000
-0.000000
-0.000000
-0.000000
-0.000000
-0.000000
-0.000000
-0.000000
-0.000000
-0.000000
-0.000000
-0.000000
-0.000000
-0.000000
-0.000000
-0.000000
-0.000000
-0.000000
-0.000000
-0.000000
-0.000000
-0.000000
-0.000000
-0.000000
-0.000000
-0.000000
-0.000000
-0.000000
-0.000000
-0.000000
-0.000000
-0.000000
-0.000000
-0.000000
-0.000000
-0.000000
-0.000000
0.000000
-0.000000
-0.000000
-0.000000
-0.000000
-0.000000
-0.000000
-0.000000
-0.000000
-0.000000
-0.000000
-0.000000
-0.000000
-0.000000
-0.000000
-0.000000
-0.000000
-0.000000
-0.000000
-0.000000
-0.000000
-0.000000
-0.000000
-0.000000
-0.000000
-0.000000
-0.000000
-0.000000
-0.000000
-0.000000
-0.000000
-0.000000
-0.000000
-0.000000
-0.000000
-0.000000
-0.000000
-0.000000
-0.000000
-0.000000
-0.000000
-0.000000
-0.000000
-0.000000
-0.000000
-0.000000
-0.000000
-0.000000
-0.000000
-0.000000
-0.000000
-0.000000
-0.000000
-0.000000
-0.000000
-0.000000
-0.000000
-0.000000
-0.000000
-0.000000
-0.000000
-0.000000
-0.000000
-0.000000
-0.000000
-0.000000
-0.000000
0.000000
-0.000000
0.000000
-0.000000
-0.000000
-0.000000
-0.000000
-0.000000
-0.000000
-0.000000
-0.000000
-0.000000
-0.000000
-0.000000
-0.000000
-0.000000
-0.000000
-0.000000
-0.000000
-0.000000
-0.000000
-0.000000
-0.000000
-0.000000
-0.000000
-0.000000
-0.000000
-0.000000
-0.000000
-0.000000
-0.000000
-0.000000
-0.000000
-0.000000
-0.000000
-0.000000
-0.000000
-0.000000
-0.000000
-0.000000
-0.000000
-0.000000
-0.000000
-0.000000
-0.000000
-0.000000
-0.000000
-0.000000
-0.000000
-0.000000
-0.000000
-0.000000
-0.000000
-0.000000
-0.000000
-0.000000
-0.000000
-0.000000
-0.000000
-0.000000
-0.000000
-0.000000
-0.000000
-0.000000
-0.000000
-0.000000
-0.000000
-0.000000
-0.000000
-0.000000
-0.000000
-0.000000
-0.000000
-0.000000
-0.000000
-0.000000
-0.000000
-0.000000
-0.000000
-0.000000
-0.000000
-0.000000
-0.000000
-0.000000
-0.000000
-0.000000
-0.000000
-0.000000
-0.000000
-0.000000
-0.000000
-0.000000
-0.000000
-0.000000
-0.000000
-0.000000
-0.000000
-0.000000
-0.000000
-0.000000
-0.000000
-0.000000
-0.000000
-0.000000
-0.000000
-0.000000
-0.000000
-0.000000
-0.000000
-0.000000
-0.000000
-0.000000
-0.000000
-0.000000
-0.000000
-0.000000
-0.000000
-0.000000
0.000000
0.000000
-0.000000
0.000000
-0.000000
-0.000000
-0.000000
-0.000000
-0.000000
-0.000000
-0.000000
-0.000000
-0.000000
-0.000000
-0.000000
-0.000000
-0.000000
0.000000
-0.000000
0.000000
-0.000000
0.000000
-0.000000
0.000000
-0.000000
-0.000000
-0.000000
-0.000000
-0.000000
-0.000000
-0.000000
-0.000000
-0.000000
-0.000000
-0.000000
-0.000000
-0.000000
-0.000000
-0.000000
-0.000000
-0.000000
-0.000000
-0.000000
-0.000000
-0.000000
-0.000000
-0.000000
-0.000000
-0.000000
-0.000000
-0.000000
-0.000000
-0.000000
-0.000000
-0.000000
-0.000000
-0.000000
-0.000000
0.000000
-0.000000
0.000000
-0.000000
-0.000000
-0.000000
-0.000000
-0.000000
-0.000000
-0.000000
-0.000000
-0.000000
-0.000000
-0.000000
-0.000000
-0.000000
-0.000000
-0.000000
-0.000000
-0.000000
-0.000000
-0.000000
-0.000000
-0.000000
-0.000000
-0.000000
-0.000000
-0.000000
-0.000000
-0.000000
-0.000000
-0.000000
-0.000000
-0.000000
-0.000000
-0.000000
-0.000000
-0.000000
-0.000000
-0.000000
-0.000000
-0.000000
-0.000000
-0.000000
-0.000000
-0.000000
-0.000000
-0.000000
-0.000000
-0.000000
-0.000000
-0.000000
-0.000000
-0.000000
-0.000000
-0.000000
-0.000000
-0.000000
-0.000000
-0.000000
-0.000000
-0.000000
0.000000
-0.000000
-0.000000
-0.000000
-0.000000
-0.000000
-0.000000
-0.000000
-0.000000
-0.000000
-0.000000
-0.000000
-0.000000
-0.000000
-0.000000
-0.000000
-0.000000
-0.000000
-0.000000
-0.000000
-0.000000
-0.000000
-0.000000
-0.000000
-0.000000
-0.000000
-0.000000
-0.000000
-0.000000
-0.000000
-0.000000
-0.000000
-0.000000
-0.000000
-0.000000
-0.000000
-0.000000
-0.000000
-0.000000
-0.000000
-0.000000
-0.000000
0.000000
-0.000000
-0.000000
-0.000000
-0.000000
-0.000000
-0.000000
-0.000000
0.000000
-0.000000
-0.000000
-0.000000
-0.000000
-0.000000
-0.000000
-0.000000
-0.000000
-0.000000
-0.000000
-0.000000
-0.000000
-0.000000
-0.000000
-0.000000
-0.000000
-0.000000
-0.000000
-0.000000
-0.000000
-0.000000
-0.000000
-0.000000
-0.000000
-0.000000
-0.000000
-0.000000
-0.000000
-0.000000
-0.000000
-0.000000
-0.000000
-0.000000
-0.000000
-0.000000
-0.000000
-0.000000
-0.000000
-0.000000
-0.000000
-0.000000
-0.000000
-0.000000
-0.000000
-0.000000
-0.000000
-0.000000
-0.000000
-0.000000
-0.000000
-0.000000
-0.000000
0.000000
0.000000
-0.000000
-0.000000
-0.000000