# vtk DataFile Version 2.0
MATLAB generated vtk file, WMC
ASCII
DATASET UNSTRUCTURED_GRID
<<<<<<< Updated upstream
POINTS 2048 double
0.024414 0.007445 0.000000 
0.024414 0.022334 0.000000 
0.073242 0.007445 0.000000 
0.073242 0.022334 0.000000 
0.024414 0.037225 0.000000 
0.024414 0.052125 0.000000 
0.073242 0.037225 0.000000 
0.073242 0.052125 0.000000 
0.024414 0.067033 0.000000 
0.024414 0.081951 0.000000 
0.073242 0.067033 0.000000 
0.073242 0.081951 0.000000 
0.024414 0.096878 0.000000 
0.024414 0.111813 0.000000 
0.073242 0.096878 0.000000 
0.073242 0.111813 0.000000 
0.024414 0.126755 0.000000 
0.024414 0.141705 0.000000 
0.073242 0.126755 0.000000 
0.073242 0.141705 0.000000 
0.024414 0.156662 0.000000 
0.024414 0.171628 0.000000 
0.073242 0.156662 0.000000 
0.073242 0.171628 0.000000 
0.024414 0.186602 0.000000 
0.024414 0.201585 0.000000 
0.073242 0.186602 0.000000 
0.073242 0.201585 0.000000 
0.024414 0.216575 0.000000 
0.024414 0.231573 0.000000 
0.073242 0.216575 0.000000 
0.073242 0.231573 0.000000 
0.024414 0.246579 0.000000 
0.024414 0.261593 0.000000 
0.073242 0.246579 0.000000 
0.073242 0.261593 0.000000 
0.024414 0.276615 0.000000 
0.024414 0.291645 0.000000 
0.073242 0.276615 0.000000 
0.073242 0.291645 0.000000 
0.024414 0.306684 0.000000 
0.024414 0.321730 0.000000 
0.073242 0.306684 0.000000 
0.073242 0.321730 0.000000 
0.024414 0.336785 0.000000 
0.024414 0.351848 0.000000 
0.073242 0.336785 0.000000 
0.073242 0.351848 0.000000 
0.024414 0.366919 0.000000 
0.024414 0.381998 0.000000 
0.073242 0.366919 0.000000 
0.073242 0.381998 0.000000 
0.024414 0.397086 0.000000 
0.024414 0.412182 0.000000 
0.073242 0.397086 0.000000 
0.073242 0.412182 0.000000 
0.024414 0.427285 0.000000 
0.024414 0.442397 0.000000 
0.073242 0.427285 0.000000 
0.073242 0.442397 0.000000 
0.024414 0.457517 0.000000 
0.024414 0.472645 0.000000 
0.073242 0.457517 0.000000 
0.073242 0.472645 0.000000 
0.024414 0.487782 0.000000 
0.024414 0.502927 0.000000 
0.073242 0.487782 0.000000 
0.073242 0.502927 0.000000 
0.024414 0.518079 0.000000 
0.024414 0.533240 0.000000 
0.073242 0.518079 0.000000 
0.073242 0.533240 0.000000 
0.024414 0.548410 0.000000 
0.024414 0.563587 0.000000 
0.073242 0.548410 0.000000 
0.073242 0.563587 0.000000 
0.024414 0.578773 0.000000 
0.024414 0.593968 0.000000 
0.073242 0.578773 0.000000 
0.073242 0.593968 0.000000 
0.024414 0.609170 0.000000 
0.024414 0.624381 0.000000 
0.073242 0.609170 0.000000 
0.073242 0.624381 0.000000 
0.024414 0.639600 0.000000 
0.024414 0.654828 0.000000 
0.073242 0.639600 0.000000 
0.073242 0.654828 0.000000 
0.024414 0.670064 0.000000 
0.024414 0.685308 0.000000 
0.073242 0.670064 0.000000 
0.073242 0.685308 0.000000 
0.024414 0.700562 0.000000 
0.024414 0.715822 0.000000 
0.073242 0.700562 0.000000 
0.073242 0.715822 0.000000 
0.024414 0.731092 0.000000 
0.024414 0.746371 0.000000 
0.073242 0.731092 0.000000 
0.073242 0.746371 0.000000 
0.024414 0.761657 0.000000 
0.024414 0.776952 0.000000 
0.073242 0.761657 0.000000 
0.073242 0.776952 0.000000 
0.024414 0.792255 0.000000 
0.024414 0.807567 0.000000 
0.073242 0.792255 0.000000 
0.073242 0.807567 0.000000 
0.024414 0.822887 0.000000 
0.024414 0.838216 0.000000 
0.073242 0.822887 0.000000 
0.073242 0.838216 0.000000 
0.024414 0.853553 0.000000 
0.024414 0.868899 0.000000 
0.073242 0.853553 0.000000 
0.073242 0.868899 0.000000 
0.024414 0.884253 0.000000 
0.024414 0.899616 0.000000 
0.073242 0.884253 0.000000 
0.073242 0.899616 0.000000 
0.024414 0.914987 0.000000 
0.024414 0.930367 0.000000 
0.073242 0.914987 0.000000 
0.073242 0.930367 0.000000 
0.024414 0.945755 0.000000 
0.024414 0.961152 0.000000 
0.073242 0.945755 0.000000 
0.073242 0.961152 0.000000 
0.024414 0.976559 0.000000 
0.024414 0.991972 0.000000 
0.073242 0.976559 0.000000 
0.073242 0.991972 0.000000 
0.024414 1.007396 0.000000 
0.024414 1.022827 0.000000 
0.073242 1.007396 0.000000 
0.073242 1.022827 0.000000 
0.024414 1.038267 0.000000 
0.024414 1.053716 0.000000 
0.073242 1.038267 0.000000 
0.073242 1.053716 0.000000 
0.024414 1.069173 0.000000 
0.024414 1.084641 0.000000 
0.073242 1.069173 0.000000 
0.073242 1.084641 0.000000 
0.024414 1.100115 0.000000 
0.024414 1.115598 0.000000 
0.073242 1.100115 0.000000 
0.073242 1.115598 0.000000 
0.024414 1.131090 0.000000 
0.024414 1.146591 0.000000 
0.073242 1.131090 0.000000 
0.073242 1.146591 0.000000 
0.024414 1.162101 0.000000 
0.024414 1.177619 0.000000 
0.073242 1.162101 0.000000 
0.073242 1.177619 0.000000 
0.024414 1.193146 0.000000 
0.024414 1.208682 0.000000 
0.073242 1.193146 0.000000 
0.073242 1.208682 0.000000 
0.024414 1.224226 0.000000 
0.024414 1.239780 0.000000 
0.073242 1.224226 0.000000 
0.073242 1.239780 0.000000 
0.024414 1.255342 0.000000 
0.024414 1.270914 0.000000 
0.073242 1.255342 0.000000 
0.073242 1.270914 0.000000 
0.024414 1.286494 0.000000 
0.024414 1.302081 0.000000 
0.073242 1.286494 0.000000 
0.073242 1.302081 0.000000 
0.024414 1.317679 0.000000 
0.024414 1.333285 0.000000 
0.073242 1.317679 0.000000 
0.073242 1.333285 0.000000 
0.024414 1.348901 0.000000 
0.024414 1.364525 0.000000 
0.073242 1.348901 0.000000 
0.073242 1.364525 0.000000 
0.024414 1.380159 0.000000 
0.024414 1.395800 0.000000 
0.073242 1.380159 0.000000 
0.073242 1.395800 0.000000 
0.024414 1.411452 0.000000 
0.024414 1.427111 0.000000 
0.073242 1.411452 0.000000 
0.073242 1.427111 0.000000 
0.024414 1.442781 0.000000 
0.024414 1.458458 0.000000 
0.073242 1.442781 0.000000 
0.073242 1.458458 0.000000 
0.024414 1.474145 0.000000 
0.024414 1.489842 0.000000 
0.073242 1.474145 0.000000 
0.073242 1.489842 0.000000 
0.024414 1.505546 0.000000 
0.024414 1.521261 0.000000 
0.073242 1.505546 0.000000 
0.073242 1.521261 0.000000 
0.024414 1.536983 0.000000 
0.024414 1.552716 0.000000 
0.073242 1.536983 0.000000 
0.073242 1.552716 0.000000 
0.024414 1.568457 0.000000 
0.024414 1.584207 0.000000 
0.073242 1.568457 0.000000 
0.073242 1.584207 0.000000 
0.024414 1.599967 0.000000 
0.024414 1.615735 0.000000 
0.073242 1.599967 0.000000 
0.073242 1.615735 0.000000 
0.024414 1.631512 0.000000 
0.024414 1.647299 0.000000 
0.073242 1.631512 0.000000 
0.073242 1.647299 0.000000 
0.024414 1.663095 0.000000 
0.024414 1.678899 0.000000 
0.073242 1.663095 0.000000 
0.073242 1.678899 0.000000 
0.024414 1.694713 0.000000 
0.024414 1.710536 0.000000 
0.073242 1.694713 0.000000 
0.073242 1.710536 0.000000 
0.024414 1.726369 0.000000 
0.024414 1.742210 0.000000 
0.073242 1.726369 0.000000 
0.073242 1.742210 0.000000 
0.024414 1.758061 0.000000 
0.024414 1.773921 0.000000 
0.073242 1.758061 0.000000 
0.073242 1.773921 0.000000 
0.024414 1.789790 0.000000 
0.024414 1.805668 0.000000 
0.073242 1.789790 0.000000 
0.073242 1.805668 0.000000 
0.024414 1.821557 0.000000 
0.024414 1.837453 0.000000 
0.073242 1.821557 0.000000 
0.073242 1.837453 0.000000 
0.024414 1.853360 0.000000 
0.024414 1.869275 0.000000 
0.073242 1.853360 0.000000 
0.073242 1.869275 0.000000 
0.024414 1.885201 0.000000 
0.024414 1.901135 0.000000 
0.073242 1.885201 0.000000 
0.073242 1.901135 0.000000 
0.024414 1.917078 0.000000 
0.024414 1.933032 0.000000 
0.073242 1.917078 0.000000 
0.073242 1.933032 0.000000 
0.024414 1.948994 0.000000 
0.024414 1.964966 0.000000 
0.073242 1.948994 0.000000 
0.073242 1.964966 0.000000 
0.024414 1.980947 0.000000 
0.024414 1.996938 0.000000 
0.073242 1.980947 0.000000 
0.073242 1.996938 0.000000 
0.024414 2.012938 0.000000 
0.024414 2.028947 0.000000 
0.073242 2.012938 0.000000 
0.073242 2.028947 0.000000 
0.024414 2.044966 0.000000 
0.024414 2.060995 0.000000 
0.073242 2.044966 0.000000 
0.073242 2.060995 0.000000 
0.024414 2.077033 0.000000 
0.024414 2.093080 0.000000 
0.073242 2.077033 0.000000 
0.073242 2.093080 0.000000 
0.024414 2.109137 0.000000 
0.024414 2.125203 0.000000 
0.073242 2.109137 0.000000 
0.073242 2.125203 0.000000 
0.024414 2.141279 0.000000 
0.024414 2.157364 0.000000 
0.073242 2.141279 0.000000 
0.073242 2.157364 0.000000 
0.024414 2.173459 0.000000 
0.024414 2.189565 0.000000 
0.073242 2.173459 0.000000 
0.073242 2.189565 0.000000 
0.024414 2.205679 0.000000 
0.024414 2.221803 0.000000 
0.073242 2.205679 0.000000 
0.073242 2.221803 0.000000 
0.024414 2.237937 0.000000 
0.024414 2.254079 0.000000 
0.073242 2.237937 0.000000 
0.073242 2.254079 0.000000 
0.024414 2.270232 0.000000 
0.024414 2.286394 0.000000 
0.073242 2.270232 0.000000 
0.073242 2.286394 0.000000 
0.024414 2.302567 0.000000 
0.024414 2.318749 0.000000 
0.073242 2.302567 0.000000 
0.073242 2.318749 0.000000 
0.024414 2.334941 0.000000 
0.024414 2.351143 0.000000 
0.073242 2.334941 0.000000 
0.073242 2.351143 0.000000 
0.024414 2.367353 0.000000 
0.024414 2.383575 0.000000 
0.073242 2.367353 0.000000 
0.073242 2.383575 0.000000 
0.024414 2.399805 0.000000 
0.024414 2.416045 0.000000 
0.073242 2.399805 0.000000 
0.073242 2.416045 0.000000 
0.024414 2.432296 0.000000 
0.024414 2.448556 0.000000 
0.073242 2.432296 0.000000 
0.073242 2.448556 0.000000 
0.024414 2.464825 0.000000 
0.024414 2.481105 0.000000 
0.073242 2.464825 0.000000 
0.073242 2.481105 0.000000 
0.024414 2.497394 0.000000 
0.024414 2.513693 0.000000 
0.073242 2.497394 0.000000 
0.073242 2.513693 0.000000 
0.024414 2.530003 0.000000 
0.024414 2.546321 0.000000 
0.073242 2.530003 0.000000 
0.073242 2.546321 0.000000 
0.024414 2.562651 0.000000 
0.024414 2.578991 0.000000 
0.073242 2.562651 0.000000 
0.073242 2.578991 0.000000 
0.024414 2.595339 0.000000 
0.024414 2.611697 0.000000 
0.073242 2.595339 0.000000 
0.073242 2.611697 0.000000 
0.024414 2.628067 0.000000 
0.024414 2.644445 0.000000 
0.073242 2.628067 0.000000 
0.073242 2.644445 0.000000 
0.024414 2.660834 0.000000 
0.024414 2.677232 0.000000 
0.073242 2.660834 0.000000 
0.073242 2.677232 0.000000 
0.024414 2.693642 0.000000 
0.024414 2.710061 0.000000 
0.073242 2.693642 0.000000 
0.073242 2.710061 0.000000 
0.024414 2.726489 0.000000 
0.024414 2.742929 0.000000 
0.073242 2.726489 0.000000 
0.073242 2.742929 0.000000 
[...]
POINT_DATA 2048
SCALARS sigma_xx FLOAT 1
LOOKUP_TABLE default
0.000000
-0.000000
0.000000
-0.000000
-0.000000
-0.000000
-0.000000
-0.000000
-0.000000
-0.000000
-0.000000
-0.000000
-0.000000
0.000000
-0.000000
0.000000
-0.000000
0.000000
-0.000000
0.000000
-0.000000
-0.000000
-0.000000
-0.000000
-0.000000
-0.000000
-0.000000
-0.000000
-0.000000
-0.000000
-0.000000
-0.000000
-0.000000
-0.000000
-0.000000
-0.000000
-0.000000
-0.000000
-0.000000
-0.000000
-0.000000
-0.000000
-0.000000
-0.000000
-0.000000
-0.000000
0.000000
-0.000000
-0.000000
-0.000000
-0.000000
-0.000000
0.000000
-0.000000
0.000000
-0.000000
-0.000000
0.000000
-0.000000
0.000000
-0.000000
-0.000000
-0.000000
-0.000000
-0.000000
-0.000000
-0.000000
-0.000000
-0.000000
-0.000000
0.000000
-0.000000
-0.000000
-0.000000
-0.000000
-0.000000
-0.000000
-0.000000
-0.000000
-0.000000
-0.000000
-0.000000
-0.000000
0.000000
-0.000000
-0.000000
-0.000000
0.000000
-0.000000
-0.000000
-0.000000
-0.000000
-0.000000
-0.000000
-0.000000
-0.000000
-0.000000
0.000000
-0.000000
-0.000000
-0.000000
-0.000000
-0.000000
-0.000000
-0.000000
-0.000000
-0.000000
-0.000000
-0.000000
-0.000000
-0.000000
-0.000000
-0.000000
-0.000000
-0.000000
-0.000000
-0.000000
-0.000000
-0.000000
-0.000000
-0.000000
-0.000000
-0.000000
-0.000000
-0.000000
-0.000000
-0.000000
-0.000000
-0.000000
-0.000000
-0.000000
-0.000000
-0.000000
-0.000000
-0.000000
-0.000000
0.000000
-0.000000
-0.000000
-0.000000
-0.000000
-0.000000
-0.000000
-0.000000
-0.000000
-0.000000
-0.000000
-0.000000
-0.000000
-0.000000
-0.000000
-0.000000
0.000000
-0.000000
-0.000000
-0.000000
-0.000000
-0.000000
-0.000000
-0.000000
-0.000000
-0.000000
0.000000
-0.000000
-0.000000
-0.000000
-0.000000
-0.000000
-0.000000
-0.000000
-0.000000
0.000000
-0.000000
-0.000000
-0.000000
-0.000000
-0.000000
-0.000000
-0.000000
-0.000000
-0.000000
-0.000000
-0.000000
-0.000000
-0.000000
-0.000000
-0.000000
-0.000000
-0.000000
-0.000000
-0.000000
-0.000000
-0.000000
-0.000000
-0.000000
-0.000000
-0.000000
-0.000000
-0.000000
-0.000000
-0.000000
-0.000000
-0.000000
-0.000000
-0.000000
-0.000000
-0.000000
-0.000000
-0.000000
-0.000000
-0.000000
-0.000000
-0.000000
-0.000000
-0.000000
-0.000000
-0.000000
-0.000000
-0.000000
-0.000000
-0.000000
-0.000000
-0.000000
-0.000000
-0.000000
-0.000000
-0.000000
-0.000000
-0.000000
-0.000000
-0.000000
-0.000000
-0.000000
-0.000000
-0.000000
-0.000000
-0.000000
-0.000000
-0.000000
-0.000000
-0.000000
-0.000000
-0.000000
-0.000000
-0.000000
0.000000
-0.000000
-0.000000
=======
POINTS 288 double
0.520833 0.166309 0.000000 
0.520833 0.498928 0.000000 
0.520833 0.831547 0.000000 
0.520833 1.164166 0.000000 
0.520833 1.496785 0.000000 
0.520833 1.829403 0.000000 
1.562500 0.166309 0.000000 
1.562500 0.498928 0.000000 
1.562500 0.831547 0.000000 
1.562500 1.164166 0.000000 
1.562500 1.496785 0.000000 
1.562500 1.829403 0.000000 
2.604167 0.166309 0.000000 
2.604167 0.498928 0.000000 
2.604167 0.831547 0.000000 
2.604167 1.164166 0.000000 
2.604167 1.496785 0.000000 
2.604167 1.829403 0.000000 
3.645833 0.166309 0.000000 
3.645833 0.498928 0.000000 
3.645833 0.831547 0.000000 
3.645833 1.164166 0.000000 
3.645833 1.496785 0.000000 
3.645833 1.829403 0.000000 
4.687500 0.166309 0.000000 
4.687500 0.498928 0.000000 
4.687500 0.831547 0.000000 
4.687500 1.164166 0.000000 
4.687500 1.496785 0.000000 
4.687500 1.829403 0.000000 
5.729167 0.166309 0.000000 
5.729167 0.498928 0.000000 
5.729167 0.831547 0.000000 
5.729167 1.164166 0.000000 
5.729167 1.496785 0.000000 
5.729167 1.829403 0.000000 
0.520833 2.164158 0.000000 
0.520833 2.504585 0.000000 
0.520833 2.850322 0.000000 
0.520833 3.201107 0.000000 
0.520833 3.556538 0.000000 
0.520833 3.915947 0.000000 
1.562500 2.164158 0.000000 
1.562500 2.504585 0.000000 
1.562500 2.850322 0.000000 
1.562500 3.201107 0.000000 
1.562500 3.556538 0.000000 
1.562500 3.915947 0.000000 
2.604167 2.164158 0.000000 
2.604167 2.504585 0.000000 
2.604167 2.850322 0.000000 
2.604167 3.201107 0.000000 
2.604167 3.556538 0.000000 
2.604167 3.915947 0.000000 
3.645833 2.164158 0.000000 
3.645833 2.504585 0.000000 
3.645833 2.850322 0.000000 
3.645833 3.201107 0.000000 
3.645833 3.556538 0.000000 
3.645833 3.915947 0.000000 
4.687500 2.164158 0.000000 
4.687500 2.504585 0.000000 
4.687500 2.850322 0.000000 
4.687500 3.201107 0.000000 
4.687500 3.556538 0.000000 
4.687500 3.915947 0.000000 
5.729167 2.164158 0.000000 
5.729167 2.504585 0.000000 
5.729167 2.850322 0.000000 
5.729167 3.201107 0.000000 
5.729167 3.556538 0.000000 
5.729167 3.915947 0.000000 
0.520833 4.280893 0.000000 
0.520833 4.653145 0.000000 
0.520833 5.032619 0.000000 
0.520833 5.419261 0.000000 
0.520833 5.812966 0.000000 
0.520833 6.213308 0.000000 
1.562500 4.280893 0.000000 
1.562500 4.653145 0.000000 
1.562500 5.032619 0.000000 
1.562500 5.419261 0.000000 
1.562500 5.812966 0.000000 
1.562500 6.213308 0.000000 
2.604167 4.280893 0.000000 
2.604167 4.653145 0.000000 
2.604167 5.032619 0.000000 
2.604167 5.419261 0.000000 
2.604167 5.812966 0.000000 
2.604167 6.213308 0.000000 
3.645833 4.280893 0.000000 
3.645833 4.653145 0.000000 
3.645833 5.032619 0.000000 
3.645833 5.419261 0.000000 
3.645833 5.812966 0.000000 
3.645833 6.213308 0.000000 
4.687500 4.280893 0.000000 
4.687500 4.653145 0.000000 
4.687500 5.032619 0.000000 
4.687500 5.419261 0.000000 
4.687500 5.812966 0.000000 
4.687500 6.213308 0.000000 
5.729167 4.280893 0.000000 
5.729167 4.653145 0.000000 
5.729167 5.032619 0.000000 
5.729167 5.419261 0.000000 
5.729167 5.812966 0.000000 
5.729167 6.213308 0.000000 
0.520833 6.620376 0.000000 
0.520833 7.033468 0.000000 
0.520833 7.453034 0.000000 
0.520833 7.879022 0.000000 
0.520833 8.311341 0.000000 
0.520833 8.749932 0.000000 
1.562500 6.620376 0.000000 
1.562500 7.033468 0.000000 
1.562500 7.453034 0.000000 
1.562500 7.879022 0.000000 
1.562500 8.311341 0.000000 
1.562500 8.749932 0.000000 
2.604167 6.620376 0.000000 
2.604167 7.033468 0.000000 
2.604167 7.453034 0.000000 
2.604167 7.879022 0.000000 
2.604167 8.311341 0.000000 
2.604167 8.749932 0.000000 
3.645833 6.620376 0.000000 
3.645833 7.033468 0.000000 
3.645833 7.453034 0.000000 
3.645833 7.879022 0.000000 
3.645833 8.311341 0.000000 
3.645833 8.749932 0.000000 
4.687500 6.620376 0.000000 
4.687500 7.033468 0.000000 
4.687500 7.453034 0.000000 
4.687500 7.879022 0.000000 
4.687500 8.311341 0.000000 
4.687500 8.749932 0.000000 
5.729167 6.620376 0.000000 
5.729167 7.033468 0.000000 
5.729167 7.453034 0.000000 
5.729167 7.879022 0.000000 
5.729167 8.311341 0.000000 
5.729167 8.749932 0.000000 
0.520833 9.196741 0.000000 
0.520833 9.652809 0.000000 
0.520833 10.119334 0.000000 
0.520833 10.595595 0.000000 
0.520833 11.082464 0.000000 
0.520833 11.580134 0.000000 
1.562500 9.196741 0.000000 
1.562500 9.652809 0.000000 
1.562500 10.119334 0.000000 
1.562500 10.595595 0.000000 
1.562500 11.082464 0.000000 
1.562500 11.580134 0.000000 
2.604167 9.196741 0.000000 
2.604167 9.652809 0.000000 
2.604167 10.119334 0.000000 
2.604167 10.595595 0.000000 
2.604167 11.082464 0.000000 
2.604167 11.580134 0.000000 
3.645833 9.196741 0.000000 
3.645833 9.652809 0.000000 
3.645833 10.119334 0.000000 
3.645833 10.595595 0.000000 
3.645833 11.082464 0.000000 
3.645833 11.580134 0.000000 
4.687500 9.196741 0.000000 
4.687500 9.652809 0.000000 
4.687500 10.119334 0.000000 
4.687500 10.595595 0.000000 
4.687500 11.082464 0.000000 
4.687500 11.580134 0.000000 
5.729167 9.196741 0.000000 
5.729167 9.652809 0.000000 
5.729167 10.119334 0.000000 
5.729167 10.595595 0.000000 
5.729167 11.082464 0.000000 
5.729167 11.580134 0.000000 
0.520833 12.090846 0.000000 
0.520833 12.615681 0.000000 
0.520833 13.152819 0.000000 
0.520833 13.701640 0.000000 
0.520833 14.264525 0.000000 
0.520833 14.839918 0.000000 
1.562500 12.090846 0.000000 
1.562500 12.615681 0.000000 
1.562500 13.152819 0.000000 
1.562500 13.701640 0.000000 
1.562500 14.264525 0.000000 
1.562500 14.839918 0.000000 
2.604167 12.090846 0.000000 
2.604167 12.615681 0.000000 
2.604167 13.152819 0.000000 
2.604167 13.701640 0.000000 
2.604167 14.264525 0.000000 
2.604167 14.839918 0.000000 
3.645833 12.090846 0.000000 
3.645833 12.615681 0.000000 
3.645833 13.152819 0.000000 
3.645833 13.701640 0.000000 
3.645833 14.264525 0.000000 
3.645833 14.839918 0.000000 
4.687500 12.090846 0.000000 
4.687500 12.615681 0.000000 
4.687500 13.152819 0.000000 
4.687500 13.701640 0.000000 
4.687500 14.264525 0.000000 
4.687500 14.839918 0.000000 
5.729167 12.090846 0.000000 
5.729167 12.615681 0.000000 
5.729167 13.152819 0.000000 
5.729167 13.701640 0.000000 
5.729167 14.264525 0.000000 
5.729167 14.839918 0.000000 
0.520833 15.432479 0.000000 
0.520833 16.044784 0.000000 
0.520833 16.677562 0.000000 
0.520833 17.334907 0.000000 
0.520833 18.019269 0.000000 
0.520833 18.732093 0.000000 
1.562500 15.432479 0.000000 
1.562500 16.044784 0.000000 
1.562500 16.677562 0.000000 
1.562500 17.334907 0.000000 
1.562500 18.019269 0.000000 
1.562500 18.732093 0.000000 
2.604167 15.432479 0.000000 
2.604167 16.044784 0.000000 
2.604167 16.677562 0.000000 
2.604167 17.334907 0.000000 
2.604167 18.019269 0.000000 
2.604167 18.732093 0.000000 
3.645833 15.432479 0.000000 
3.645833 16.044784 0.000000 
3.645833 16.677562 0.000000 
3.645833 17.334907 0.000000 
3.645833 18.019269 0.000000 
3.645833 18.732093 0.000000 
4.687500 15.432479 0.000000 
4.687500 16.044784 0.000000 
4.687500 16.677562 0.000000 
4.687500 17.334907 0.000000 
4.687500 18.019269 0.000000 
4.687500 18.732093 0.000000 
5.729167 15.432479 0.000000 
5.729167 16.044784 0.000000 
5.729167 16.677562 0.000000 
5.729167 17.334907 0.000000 
5.729167 18.019269 0.000000 
5.729167 18.732093 0.000000 
0.520833 19.476228 0.000000 
0.520833 20.251419 0.000000 
0.520833 21.060088 0.000000 
0.520833 21.910076 0.000000 
0.520833 22.803327 0.000000 
0.520833 23.750951 0.000000 
1.562500 19.476228 0.000000 
1.562500 20.251419 0.000000 
1.562500 21.060088 0.000000 
1.562500 21.910076 0.000000 
1.562500 22.803327 0.000000 
1.562500 23.750951 0.000000 
2.604167 19.476228 0.000000 
2.604167 20.251419 0.000000 
2.604167 21.060088 0.000000 
2.604167 21.910076 0.000000 
2.604167 22.803327 0.000000 
2.604167 23.750951 0.000000 
3.645833 19.476228 0.000000 
3.645833 20.251419 0.000000 
3.645833 21.060088 0.000000 
3.645833 21.910076 0.000000 
3.645833 22.803327 0.000000 
3.645833 23.750951 0.000000 
4.687500 19.476228 0.000000 
4.687500 20.251419 0.000000 
4.687500 21.060088 0.000000 
4.687500 21.910076 0.000000 
4.687500 22.803327 0.000000 
4.687500 23.750951 0.000000 
5.729167 19.476228 0.000000 
5.729167 20.251419 0.000000 
5.729167 21.060088 0.000000 
5.729167 21.910076 0.000000 
5.729167 22.803327 0.000000 
5.729167 23.750951 0.000000 

POINT_DATA 288
SCALARS sigma_xx FLOAT 1
LOOKUP_TABLE default
0.000000
0.000000
0.000000
0.000000
0.000000
-0.000000
0.000000
0.000000
0.000000
0.000000
0.000000
-0.000000
0.000000
0.000000
0.000000
0.000000
0.000000
-0.000000
0.000000
0.000000
0.000000
0.000000
0.000000
-0.000000
0.000000
0.000000
0.000000
0.000000
0.000000
-0.000000
0.000000
0.000000
0.000000
0.000000
0.000000
>>>>>>> Stashed changes
-0.000000
-0.000000
-0.000000
-0.000000
-0.000000
-0.000000
<<<<<<< Updated upstream
=======
0.000000
>>>>>>> Stashed changes
-0.000000
-0.000000
-0.000000
-0.000000
<<<<<<< Updated upstream
=======
0.000000
0.000000
>>>>>>> Stashed changes
-0.000000
-0.000000
-0.000000
-0.000000
<<<<<<< Updated upstream
=======
0.000000
0.000000
>>>>>>> Stashed changes
-0.000000
-0.000000
-0.000000
-0.000000
<<<<<<< Updated upstream
=======
0.000000
0.000000
>>>>>>> Stashed changes
-0.000000
-0.000000
-0.000000
-0.000000
<<<<<<< Updated upstream
-0.000000
-0.000000
-0.000000
-0.000000
-0.000000
-0.000000
-0.000000
-0.000000
=======
0.000000
0.000000
>>>>>>> Stashed changes
-0.000000
-0.000000
-0.000000
-0.000000
-0.000000
0.000000
-0.000000
-0.000000
-0.000000
-0.000000
-0.000000
-0.000000
<<<<<<< Updated upstream
=======
0.000000
0.000000
>>>>>>> Stashed changes
-0.000000
-0.000000
-0.000000
-0.000000
<<<<<<< Updated upstream
=======
0.000000
0.000000
>>>>>>> Stashed changes
-0.000000
-0.000000
-0.000000
-0.000000
<<<<<<< Updated upstream
-0.000000
-0.000000
-0.000000
-0.000000
-0.000000
-0.000000
-0.000000
-0.000000
-0.000000
-0.000000
-0.000000
-0.000000
-0.000000
-0.000000
-0.000000
-0.000000
-0.000000
-0.000000
-0.000000
-0.000000
-0.000000
-0.000000
-0.000000
-0.000000
-0.000000
-0.000000
-0.000000
-0.000000
-0.000000
-0.000000
-0.000000
-0.000000
-0.000000
-0.000000
-0.000000
-0.000000
-0.000000
-0.000000
-0.000000
-0.000000
-0.000000
-0.000000
-0.000000
-0.000000
-0.000000
-0.000000
-0.000000
-0.000000
-0.000000
-0.000000
-0.000000
-0.000000
-0.000000
-0.000000
-0.000000
-0.000000
-0.000000
-0.000000
-0.000000
-0.000000
-0.000000
-0.000000
-0.000000
-0.000000
-0.000000
-0.000000
-0.000000
-0.000000
-0.000000
-0.000000
-0.000000
-0.000000
-0.000000
-0.000000
-0.000000
-0.000000
-0.000000
-0.000000
-0.000000
-0.000000
-0.000000
-0.000000
-0.000000
-0.000000
-0.000000
-0.000000
-0.000000
-0.000000
-0.000000
-0.000000
-0.000000
-0.000000
-0.000000
-0.000000
-0.000000
-0.000000
-0.000000
-0.000000
-0.000000
-0.000000
-0.000000
-0.000000
-0.000000
-0.000000
-0.000000
-0.000000
-0.000000
-0.000000
-0.000000
-0.000000
-0.000000
-0.000000
-0.000000
-0.000000
-0.000000
-0.000000
-0.000000
-0.000000
-0.000000
-0.000000
-0.000000
-0.000000
-0.000000
-0.000000
-0.000000
-0.000000
-0.000000
-0.000000
-0.000000
-0.000000
-0.000000
-0.000000
-0.000000
-0.000000
-0.000000
-0.000000
-0.000000
-0.000000
-0.000000
-0.000000
-0.000000
-0.000000
-0.000000
-0.000000
-0.000000
-0.000000
-0.000000
-0.000000
-0.000000
-0.000000
-0.000000
-0.000000
-0.000000
-0.000000
-0.000000
-0.000000
-0.000000
-0.000000
-0.000000
-0.000000
-0.000000
-0.000000
-0.000000
-0.000000
-0.000000
-0.000000
-0.000000
-0.000000
-0.000000
-0.000000
-0.000000
-0.000000
-0.000000
-0.000000
-0.000000
-0.000000
-0.000000
-0.000000
-0.000000
-0.000000
-0.000000
0.000000
-0.000000
-0.000000
-0.000000
-0.000000
-0.000000
-0.000000
-0.000000
-0.000000
-0.000000
-0.000000
-0.000000
-0.000000
-0.000000
-0.000000
-0.000000
-0.000000
-0.000000
-0.000000
-0.000000
-0.000000
-0.000000
-0.000000
-0.000000
-0.000000
-0.000000
-0.000000
-0.000000
-0.000000
-0.000000
-0.000000
-0.000000
-0.000000
-0.000000
-0.000000
-0.000000
-0.000000
-0.000000
-0.000000
-0.000000
-0.000000
-0.000000
-0.000000
-0.000000
-0.000000
-0.000000
-0.000000
-0.000000
-0.000000
-0.000000
-0.000000
-0.000000
-0.000000
-0.000000
-0.000000
-0.000000
-0.000000
-0.000000
-0.000000
-0.000000
-0.000000
-0.000000
-0.000000
-0.000000
-0.000000
-0.000000
-0.000000
-0.000000
-0.000000
-0.000000
-0.000000
-0.000000
-0.000000
-0.000000
-0.000000
-0.000000
-0.000000
-0.000000
-0.000000
-0.000000
-0.000000
-0.000000
-0.000000
-0.000000
-0.000000
-0.000000
-0.000000
-0.000000
-0.000000
-0.000000
-0.000000
-0.000000
-0.000000
-0.000000
-0.000000
-0.000000
-0.000000
-0.000000
-0.000000
-0.000000
-0.000000
-0.000000
-0.000000
-0.000000
-0.000000
-0.000000
-0.000000
-0.000000
-0.000000
-0.000000
-0.000000
-0.000000
-0.000000
-0.000000
-0.000000
-0.000000
-0.000000
-0.000000
-0.000000
-0.000000
-0.000000
-0.000000
-0.000000
-0.000000
-0.000000
-0.000000
-0.000000
-0.000000
-0.000000
-0.000000
-0.000000
-0.000000
-0.000000
-0.000000
-0.000000
-0.000000
-0.000000
-0.000000
-0.000000
-0.000000
-0.000000
-0.000000
-0.000000
-0.000000
-0.000000
-0.000000
-0.000000
-0.000000
-0.000000
-0.000000
-0.000000
-0.000000
-0.000000
-0.000000
-0.000000
-0.000000
-0.000000
-0.000000
-0.000000
-0.000000
-0.000000
-0.000000
-0.000000
-0.000000
-0.000000
-0.000000
-0.000000
-0.000000
-0.000000
-0.000000
-0.000000
-0.000000
-0.000000
-0.000000
-0.000000
-0.000000
-0.000000
-0.000000
-0.000000
-0.000000
-0.000000
-0.000000
-0.000000
-0.000000
-0.000000
-0.000000
-0.000000
-0.000000
-0.000000
-0.000000
-0.000000
-0.000000
-0.000000
-0.000000
-0.000000
-0.000000
-0.000000
-0.000000
-0.000000
-0.000000
-0.000000
-0.000000
-0.000000
-0.000000
-0.000000
-0.000000
-0.000000
-0.000000
-0.000000
-0.000000
-0.000000
-0.000000
-0.000000
-0.000000
-0.000000
-0.000000
-0.000000
-0.000000
-0.000000
-0.000000
-0.000000
-0.000000
-0.000000
-0.000000
-0.000000
-0.000000
-0.000000
-0.000000
-0.000000
-0.000000
-0.000000
-0.000000
-0.000000
-0.000000
-0.000000
-0.000000
-0.000000
-0.000000
-0.000000
-0.000000
-0.000000
-0.000000
-0.000000
-0.000000
-0.000000
-0.000000
-0.000000
-0.000000
-0.000000
-0.000000
-0.000000
-0.000000
-0.000000
-0.000000
-0.000000
-0.000000
-0.000000
-0.000000
-0.000000
-0.000000
-0.000000
-0.000000
-0.000000
-0.000000
-0.000000
-0.000000
-0.000000
-0.000000
-0.000000
-0.000000
-0.000000
-0.000000
-0.000000
-0.000000
-0.000000
-0.000000
-0.000000
-0.000000
-0.000000
-0.000000
-0.000000
-0.000000
-0.000000
-0.000000
-0.000000
-0.000000
-0.000000
-0.000000
-0.000000
-0.000000
-0.000000
-0.000000
-0.000000
-0.000000
-0.000000
-0.000000
-0.000000
-0.000000
-0.000000
-0.000000
-0.000000
-0.000000
-0.000000
-0.000000
-0.000000
-0.000000
-0.000000
-0.000000
-0.000000
-0.000000
-0.000000
-0.000000
-0.000000
-0.000000
-0.000000
-0.000000
-0.000000
-0.000000
-0.000000
-0.000000
-0.000000
-0.000000
-0.000000
-0.000000
-0.000000
-0.000000
-0.000000
-0.000000
-0.000000
-0.000000
-0.000000
-0.000000
-0.000000
-0.000000
-0.000000
-0.000000
-0.000000
-0.000000
-0.000000
0.000000
-0.000000
-0.000000
-0.000000
-0.000000
-0.000000
-0.000000
-0.000000
-0.000000
-0.000000
0.000000
-0.000000
-0.000000
-0.000000
-0.000000
-0.000000
0.000000
-0.000000
-0.000000
-0.000000
-0.000000
-0.000000
-0.000000
-0.000000
-0.000000
-0.000000
-0.000000
-0.000000
-0.000000
-0.000000
-0.000000
-0.000000
-0.000000
-0.000000
-0.000000
-0.000000
-0.000000
-0.000000
-0.000000
-0.000000
-0.000000
-0.000000
-0.000000
-0.000000
-0.000000
-0.000000
-0.000000
-0.000000
-0.000000
-0.000000
-0.000000
-0.000000
-0.000000
-0.000000
-0.000000
-0.000000
-0.000000
-0.000000
-0.000000
-0.000000
-0.000000
-0.000000
-0.000000
-0.000000
-0.000000
-0.000000
-0.000000
-0.000000
-0.000000
-0.000000
-0.000000
-0.000000
-0.000000
-0.000000
-0.000000
-0.000000
-0.000000
-0.000000
-0.000000
-0.000000
-0.000000
-0.000000
-0.000000
-0.000000
-0.000000
-0.000000
-0.000000
-0.000000
-0.000000
-0.000000
-0.000000
-0.000000
-0.000000
-0.000000
-0.000000
-0.000000
-0.000000
-0.000000
-0.000000
-0.000000
-0.000000
-0.000000
-0.000000
-0.000000
-0.000000
-0.000000
-0.000000
-0.000000
-0.000000
-0.000000
-0.000000
-0.000000
-0.000000
-0.000000
-0.000000
-0.000000
-0.000000
-0.000000
-0.000000
-0.000000
-0.000000
-0.000000
-0.000000
-0.000000
-0.000000
-0.000000
-0.000000
-0.000000
-0.000000
-0.000000
-0.000000
-0.000000
-0.000000
-0.000000
-0.000000
-0.000000
-0.000000
-0.000000
-0.000000
-0.000000
-0.000000
-0.000000
-0.000000
-0.000000
-0.000000
-0.000000
-0.000000
-0.000000
-0.000000
-0.000000
-0.000000
-0.000000
-0.000000
-0.000000
-0.000000
-0.000000
-0.000000
-0.000000
-0.000000
-0.000000
-0.000000
-0.000000
-0.000000
-0.000000
-0.000000
-0.000000
-0.000000
-0.000000
-0.000000
-0.000000
-0.000000
-0.000000
-0.000000
-0.000000
-0.000000
-0.000000
-0.000000
-0.000000
-0.000000
-0.000000
-0.000000
-0.000000
-0.000000
-0.000000
-0.000000
-0.000000
-0.000000
-0.000000
-0.000000
-0.000000
-0.000000
-0.000000
-0.000000
-0.000000
-0.000000
-0.000000
-0.000000
-0.000000
-0.000000
-0.000000
-0.000000
-0.000000
-0.000000
-0.000000
-0.000000
-0.000000
-0.000000
-0.000000
-0.000000
-0.000000
-0.000000
-0.000000
-0.000000
-0.000000
-0.000000
0.000000
-0.000000
-0.000000
-0.000000
-0.000000
-0.000000
-0.000000
-0.000000
-0.000000
-0.000000
-0.000000
-0.000000
0.000000
-0.000000
-0.000000
-0.000000
-0.000000
-0.000000
-0.000000
-0.000000
-0.000000
-0.000000
-0.000000
-0.000000
-0.000000
-0.000000
-0.000000
0.000000
-0.000000
-0.000000
-0.000000
-0.000000
-0.000000
-0.000000
-0.000000
-0.000000
-0.000000
-0.000000
-0.000000
-0.000000
-0.000000
-0.000000
-0.000000
-0.000000
-0.000000
-0.000000