# vtk DataFile Version 2.0
MATLAB generated vtk file, WMC
ASCII
DATASET UNSTRUCTURED_GRID
POINTS 576 double
0.130208 0.041052 0.000000 
0.130208 0.123156 0.000000 
0.130208 0.205260 0.000000 
0.390625 0.041052 0.000000 
0.390625 0.123156 0.000000 
0.390625 0.205260 0.000000 
0.651042 0.041052 0.000000 
0.651042 0.123156 0.000000 
0.651042 0.205260 0.000000 
0.130208 0.287451 0.000000 
0.130208 0.369918 0.000000 
0.130208 0.452622 0.000000 
0.390625 0.287451 0.000000 
0.390625 0.369918 0.000000 
0.390625 0.452622 0.000000 
0.651042 0.287451 0.000000 
0.651042 0.369918 0.000000 
0.651042 0.452622 0.000000 
0.130208 0.535565 0.000000 
0.130208 0.618812 0.000000 
0.130208 0.702334 0.000000 
0.390625 0.535565 0.000000 
0.390625 0.618812 0.000000 
0.390625 0.702334 0.000000 
0.651042 0.535565 0.000000 
0.651042 0.618812 0.000000 
0.651042 0.702334 0.000000 
0.130208 0.786124 0.000000 
0.130208 0.870176 0.000000 
0.130208 0.954434 0.000000 
0.390625 0.786124 0.000000 
0.390625 0.870176 0.000000 
0.390625 0.954434 0.000000 
0.651042 0.786124 0.000000 
0.651042 0.870176 0.000000 
0.651042 0.954434 0.000000 
0.130208 1.038919 0.000000 
0.130208 1.123660 0.000000 
0.130208 1.208640 0.000000 
0.390625 1.038919 0.000000 
0.390625 1.123660 0.000000 
0.390625 1.208640 0.000000 
0.651042 1.038919 0.000000 
0.651042 1.123660 0.000000 
0.651042 1.208640 0.000000 
0.130208 1.293869 0.000000 
0.130208 1.379365 0.000000 
0.130208 1.465129 0.000000 
0.390625 1.293869 0.000000 
0.390625 1.379365 0.000000 
0.390625 1.465129 0.000000 
0.651042 1.293869 0.000000 
0.651042 1.379365 0.000000 
0.651042 1.465129 0.000000 
0.130208 1.551176 0.000000 
0.130208 1.637495 0.000000 
0.130208 1.724057 0.000000 
0.390625 1.551176 0.000000 
0.390625 1.637495 0.000000 
0.390625 1.724057 0.000000 
0.651042 1.551176 0.000000 
0.651042 1.637495 0.000000 
0.651042 1.724057 0.000000 
0.130208 1.810862 0.000000 
0.130208 1.897930 0.000000 
0.130208 1.985268 0.000000 
0.390625 1.810862 0.000000 
0.390625 1.897930 0.000000 
0.390625 1.985268 0.000000 
0.651042 1.810862 0.000000 
0.651042 1.897930 0.000000 
0.651042 1.985268 0.000000 
0.130208 2.072867 0.000000 
0.130208 2.160769 0.000000 
0.130208 2.248921 0.000000 
0.390625 2.072867 0.000000 
0.390625 2.160769 0.000000 
0.390625 2.248921 0.000000 
0.651042 2.072867 0.000000 
0.651042 2.160769 0.000000 
0.651042 2.248921 0.000000 
0.130208 2.337388 0.000000 
0.130208 2.426149 0.000000 
0.130208 2.515144 0.000000 
0.390625 2.337388 0.000000 
0.390625 2.426149 0.000000 
0.390625 2.515144 0.000000 
0.651042 2.337388 0.000000 
0.651042 2.426149 0.000000 
0.651042 2.515144 0.000000 
0.130208 2.604433 0.000000 
0.130208 2.694001 0.000000 
0.130208 2.783845 0.000000 
0.390625 2.604433 0.000000 
0.390625 2.694001 0.000000 
0.390625 2.783845 0.000000 
0.651042 2.604433 0.000000 
0.651042 2.694001 0.000000 
0.651042 2.783845 0.000000 
0.130208 2.873983 0.000000 
0.130208 2.964451 0.000000 
0.130208 3.055182 0.000000 
0.390625 2.873983 0.000000 
0.390625 2.964451 0.000000 
0.390625 3.055182 0.000000 
0.651042 2.873983 0.000000 
0.651042 2.964451 0.000000 
0.651042 3.055182 0.000000 
0.130208 3.146247 0.000000 
0.130208 3.237604 0.000000 
0.130208 3.329243 0.000000 
0.390625 3.146247 0.000000 
0.390625 3.237604 0.000000 
0.390625 3.329243 0.000000 
0.651042 3.146247 0.000000 
0.651042 3.237604 0.000000 
0.651042 3.329243 0.000000 
0.130208 3.421203 0.000000 
0.130208 3.513462 0.000000 
0.130208 3.605991 0.000000 
0.390625 3.421203 0.000000 
0.390625 3.513462 0.000000 
0.390625 3.605991 0.000000 
0.651042 3.421203 0.000000 
0.651042 3.513462 0.000000 
0.651042 3.605991 0.000000 
0.130208 3.698844 0.000000 
0.130208 3.792046 0.000000 
0.130208 3.885571 0.000000 
0.390625 3.698844 0.000000 
0.390625 3.792046 0.000000 
0.390625 3.885571 0.000000 
0.651042 3.698844 0.000000 
0.651042 3.792046 0.000000 
0.651042 3.885571 0.000000 
0.130208 3.979402 0.000000 
0.130208 4.073608 0.000000 
0.130208 4.168065 0.000000 
0.390625 3.979402 0.000000 
0.390625 4.073608 0.000000 
0.390625 4.168065 0.000000 
0.651042 3.979402 0.000000 
0.651042 4.073608 0.000000 
0.651042 4.168065 0.000000 
0.130208 4.262842 0.000000 
0.130208 4.357998 0.000000 
0.130208 4.453505 0.000000 
0.390625 4.262842 0.000000 
0.390625 4.357998 0.000000 
0.390625 4.453505 0.000000 
0.651042 4.262842 0.000000 
0.651042 4.357998 0.000000 
0.651042 4.453505 0.000000 
0.130208 4.549310 0.000000 
0.130208 4.645490 0.000000 
0.130208 4.741994 0.000000 
0.390625 4.549310 0.000000 
0.390625 4.645490 0.000000 
0.390625 4.741994 0.000000 
0.651042 4.549310 0.000000 
0.651042 4.645490 0.000000 
0.651042 4.741994 0.000000 
0.130208 4.838870 0.000000 
0.130208 4.936043 0.000000 
0.130208 5.033626 0.000000 
0.390625 4.838870 0.000000 
0.390625 4.936043 0.000000 
0.390625 5.033626 0.000000 
0.651042 4.838870 0.000000 
0.651042 4.936043 0.000000 
0.651042 5.033626 0.000000 
0.130208 5.131536 0.000000 
0.130208 5.229784 0.000000 
0.130208 5.328438 0.000000 
0.390625 5.131536 0.000000 
0.390625 5.229784 0.000000 
0.390625 5.328438 0.000000 
0.651042 5.131536 0.000000 
0.651042 5.229784 0.000000 
0.651042 5.328438 0.000000 
0.130208 5.427484 0.000000 
0.130208 5.526877 0.000000 
0.130208 5.626603 0.000000 
0.390625 5.427484 0.000000 
0.390625 5.526877 0.000000 
0.390625 5.626603 0.000000 
0.651042 5.427484 0.000000 
0.651042 5.526877 0.000000 
0.651042 5.626603 0.000000 
0.130208 5.726751 0.000000 
0.130208 5.827235 0.000000 
0.130208 5.928097 0.000000 
0.390625 5.726751 0.000000 
0.390625 5.827235 0.000000 
0.390625 5.928097 0.000000 
0.651042 5.726751 0.000000 
0.651042 5.827235 0.000000 
0.651042 5.928097 0.000000 
0.130208 6.029376 0.000000 
0.130208 6.131078 0.000000 
0.130208 6.233138 0.000000 
0.390625 6.029376 0.000000 
0.390625 6.131078 0.000000 
0.390625 6.233138 0.000000 
0.651042 6.029376 0.000000 
0.651042 6.131078 0.000000 
0.651042 6.233138 0.000000 
0.130208 6.335598 0.000000 
0.130208 6.438487 0.000000 
0.130208 6.541755 0.000000 
0.390625 6.335598 0.000000 
0.390625 6.438487 0.000000 
0.390625 6.541755 0.000000 
0.651042 6.335598 0.000000 
0.651042 6.438487 0.000000 
0.651042 6.541755 0.000000 
0.130208 6.645455 0.000000 
0.130208 6.749577 0.000000 
0.130208 6.854114 0.000000 
0.390625 6.645455 0.000000 
0.390625 6.749577 0.000000 
0.390625 6.854114 0.000000 
0.651042 6.645455 0.000000 
0.651042 6.749577 0.000000 
0.651042 6.854114 0.000000 
0.130208 6.959065 0.000000 
0.130208 7.064454 0.000000 
0.130208 7.170250 0.000000 
0.390625 6.959065 0.000000 
0.390625 7.064454 0.000000 
0.390625 7.170250 0.000000 
0.651042 6.959065 0.000000 
0.651042 7.064454 0.000000 
0.651042 7.170250 0.000000 
0.130208 7.276523 0.000000 
0.130208 7.383235 0.000000 
0.130208 7.490344 0.000000 
0.390625 7.276523 0.000000 
0.390625 7.383235 0.000000 
0.390625 7.490344 0.000000 
0.651042 7.276523 0.000000 
0.651042 7.383235 0.000000 
0.651042 7.490344 0.000000 
0.130208 7.597981 0.000000 
0.130208 7.706017 0.000000 
0.130208 7.814556 0.000000 
0.390625 7.597981 0.000000 
0.390625 7.706017 0.000000 
0.390625 7.814556 0.000000 
0.651042 7.597981 0.000000 
0.651042 7.706017 0.000000 
0.651042 7.814556 0.000000 
0.130208 7.923559 0.000000 
0.130208 8.033018 0.000000 
0.130208 8.142953 0.000000 
0.390625 7.923559 0.000000 
0.390625 8.033018 0.000000 
0.390625 8.142953 0.000000 
0.651042 7.923559 0.000000 
0.651042 8.033018 0.000000 
0.651042 8.142953 0.000000 
0.130208 8.253354 0.000000 
0.130208 8.364287 0.000000 
0.130208 8.475675 0.000000 
0.390625 8.253354 0.000000 
0.390625 8.364287 0.000000 
0.390625 8.475675 0.000000 
0.651042 8.253354 0.000000 
0.651042 8.364287 0.000000 
0.651042 8.475675 0.000000 
0.130208 8.587607 0.000000 
0.130208 8.700048 0.000000 
0.130208 8.812967 0.000000 
0.390625 8.587607 0.000000 
0.390625 8.700048 0.000000 
0.390625 8.812967 0.000000 
0.651042 8.587607 0.000000 
0.651042 8.700048 0.000000 
0.651042 8.812967 0.000000 
0.130208 8.926370 0.000000 
0.130208 9.040344 0.000000 
0.130208 9.154784 0.000000 
0.390625 8.926370 0.000000 
0.390625 9.040344 0.000000 
0.390625 9.154784 0.000000 
0.651042 8.926370 0.000000 
0.651042 9.040344 0.000000 
0.651042 9.154784 0.000000 
0.130208 9.269845 0.000000 
0.130208 9.385456 0.000000 
0.130208 9.501521 0.000000 
0.390625 9.269845 0.000000 
0.390625 9.385456 0.000000 
0.390625 9.501521 0.000000 
0.651042 9.269845 0.000000 
0.651042 9.385456 0.000000 
0.651042 9.501521 0.000000 
0.130208 9.618197 0.000000 
0.130208 9.735441 0.000000 
0.130208 9.853257 0.000000 
0.390625 9.618197 0.000000 
0.390625 9.735441 0.000000 
0.390625 9.853257 0.000000 
0.651042 9.618197 0.000000 
0.651042 9.735441 0.000000 
0.651042 9.853257 0.000000 
0.130208 9.971609 0.000000 
0.130208 10.090674 0.000000 
0.130208 10.210207 0.000000 
0.390625 9.971609 0.000000 
0.390625 10.090674 0.000000 
0.390625 10.210207 0.000000 
0.651042 9.971609 0.000000 
0.651042 10.090674 0.000000 
0.651042 10.210207 0.000000 
0.130208 10.330277 0.000000 
0.130208 10.451037 0.000000 
0.130208 10.572391 0.000000 
0.390625 10.330277 0.000000 
0.390625 10.451037 0.000000 
0.390625 10.572391 0.000000 
0.651042 10.330277 0.000000 
0.651042 10.451037 0.000000 
0.651042 10.572391 0.000000 
0.130208 10.694390 0.000000 
0.130208 10.817017 0.000000 
0.130208 10.940299 0.000000 
0.390625 10.694390 0.000000 
0.390625 10.817017 0.000000 
0.390625 10.940299 0.000000 
0.651042 10.694390 0.000000 
0.651042 10.817017 0.000000 
0.651042 10.940299 0.000000 
0.130208 11.064192 0.000000 
0.130208 11.188733 0.000000 
0.130208 11.313930 0.000000 
0.390625 11.064192 0.000000 
0.390625 11.188733 0.000000 
0.390625 11.313930 0.000000 
0.651042 11.064192 0.000000 
0.651042 11.188733 0.000000 
0.651042 11.313930 0.000000 
0.130208 11.439836 0.000000 
0.130208 11.566468 0.000000 
0.130208 11.693764 0.000000 
0.390625 11.439836 0.000000 
0.390625 11.566468 0.000000 
0.390625 11.693764 0.000000 
0.651042 11.439836 0.000000 
0.651042 11.566468 0.000000 
0.651042 11.693764 0.000000 
0.130208 11.821721 0.000000 
0.130208 11.950418 0.000000 
0.130208 12.079894 0.000000 
0.390625 11.821721 0.000000 
0.390625 11.950418 0.000000 
0.390625 12.079894 0.000000 
0.651042 11.821721 0.000000 
0.651042 11.950418 0.000000 
0.651042 12.079894 0.000000 
0.130208 12.210024 0.000000 
0.130208 12.340930 0.000000 
0.130208 12.472706 0.000000 
0.390625 12.210024 0.000000 
0.390625 12.340930 0.000000 
0.390625 12.472706 0.000000 
0.651042 12.210024 0.000000 
0.651042 12.340930 0.000000 
0.651042 12.472706 0.000000 
0.130208 12.605082 0.000000 
0.130208 12.738254 0.000000 
0.130208 12.872306 0.000000 
0.390625 12.605082 0.000000 
0.390625 12.738254 0.000000 
0.390625 12.872306 0.000000 
0.651042 12.605082 0.000000 
0.651042 12.738254 0.000000 
0.651042 12.872306 0.000000 
0.130208 13.007179 0.000000 
0.130208 13.142680 0.000000 
0.130208 13.279194 0.000000 
0.390625 13.007179 0.000000 
0.390625 13.142680 0.000000 
0.390625 13.279194 0.000000 
0.651042 13.007179 0.000000 
0.651042 13.142680 0.000000 
0.651042 13.279194 0.000000 
0.130208 13.416530 0.000000 
0.130208 13.554648 0.000000 
0.130208 13.693674 0.000000 
0.390625 13.416530 0.000000 
0.390625 13.554648 0.000000 
0.390625 13.693674 0.000000 
0.651042 13.416530 0.000000 
0.651042 13.554648 0.000000 
0.651042 13.693674 0.000000 
0.130208 13.833595 0.000000 
0.130208 13.974467 0.000000 
0.130208 14.116135 0.000000 
0.390625 13.833595 0.000000 
0.390625 13.974467 0.000000 
0.390625 14.116135 0.000000 
0.651042 13.833595 0.000000 
0.651042 13.974467 0.000000 
0.651042 14.116135 0.000000 
0.130208 14.258836 0.000000 
0.130208 14.402441 0.000000 
0.130208 14.547054 0.000000 
0.390625 14.258836 0.000000 
0.390625 14.402441 0.000000 
0.390625 14.547054 0.000000 
0.651042 14.258836 0.000000 
0.651042 14.402441 0.000000 
0.651042 14.547054 0.000000 
0.130208 14.692574 0.000000 
0.130208 14.839086 0.000000 
0.130208 14.986694 0.000000 
0.390625 14.692574 0.000000 
0.390625 14.839086 0.000000 
0.390625 14.986694 0.000000 
0.651042 14.692574 0.000000 
0.651042 14.839086 0.000000 
0.651042 14.986694 0.000000 
0.130208 15.135349 0.000000 
0.130208 15.285002 0.000000 
0.130208 15.435754 0.000000 
0.390625 15.135349 0.000000 
0.390625 15.285002 0.000000 
0.390625 15.435754 0.000000 
0.651042 15.135349 0.000000 
0.651042 15.285002 0.000000 
0.651042 15.435754 0.000000 
0.130208 15.587641 0.000000 
0.130208 15.740628 0.000000 
0.130208 15.894615 0.000000 
0.390625 15.587641 0.000000 
0.390625 15.740628 0.000000 
0.390625 15.894615 0.000000 
0.651042 15.587641 0.000000 
0.651042 15.740628 0.000000 
0.651042 15.894615 0.000000 
0.130208 16.049933 0.000000 
0.130208 16.206436 0.000000 
0.130208 16.364008 0.000000 
0.390625 16.049933 0.000000 
0.390625 16.206436 0.000000 
0.390625 16.364008 0.000000 
0.651042 16.049933 0.000000 
0.651042 16.206436 0.000000 
0.651042 16.364008 0.000000 
0.130208 16.522951 0.000000 
0.130208 16.683284 0.000000 
0.130208 16.844693 0.000000 
0.390625 16.522951 0.000000 
0.390625 16.683284 0.000000 
0.390625 16.844693 0.000000 
0.651042 16.522951 0.000000 
0.651042 16.683284 0.000000 
0.651042 16.844693 0.000000 
0.130208 17.007488 0.000000 
0.130208 17.171766 0.000000 
0.130208 17.337200 0.000000 
0.390625 17.007488 0.000000 
0.390625 17.171766 0.000000 
0.390625 17.337200 0.000000 
0.651042 17.007488 0.000000 
0.651042 17.171766 0.000000 
0.651042 17.337200 0.000000 
0.130208 17.504187 0.000000 
0.130208 17.672548 0.000000 
0.130208 17.842475 0.000000 
0.390625 17.504187 0.000000 
0.390625 17.672548 0.000000 
0.390625 17.842475 0.000000 
0.651042 17.504187 0.000000 
0.651042 17.672548 0.000000 
0.651042 17.842475 0.000000 
0.130208 18.013824 0.000000 
0.130208 18.186726 0.000000 
0.130208 18.361091 0.000000 
0.390625 18.013824 0.000000 
0.390625 18.186726 0.000000 
0.390625 18.361091 0.000000 
0.651042 18.013824 0.000000 
0.651042 18.186726 0.000000 
0.651042 18.361091 0.000000 
0.130208 18.537175 0.000000 
0.130208 18.715028 0.000000 
0.130208 18.894467 0.000000 
0.390625 18.537175 0.000000 
0.390625 18.715028 0.000000 
0.390625 18.894467 0.000000 
0.651042 18.537175 0.000000 
0.651042 18.715028 0.000000 
0.651042 18.894467 0.000000 
0.130208 19.075829 0.000000 
0.130208 19.259051 0.000000 
0.130208 19.443834 0.000000 
0.390625 19.075829 0.000000 
0.390625 19.259051 0.000000 
0.390625 19.443834 0.000000 
0.651042 19.075829 0.000000 
0.651042 19.259051 0.000000 
0.651042 19.443834 0.000000 
0.130208 19.630893 0.000000 
0.130208 19.819859 0.000000 
0.130208 20.010619 0.000000 
0.390625 19.630893 0.000000 
0.390625 19.819859 0.000000 
0.390625 20.010619 0.000000 
0.651042 19.630893 0.000000 
0.651042 19.819859 0.000000 
0.651042 20.010619 0.000000 
0.130208 20.203677 0.000000 
0.130208 20.398760 0.000000 
0.130208 20.596003 0.000000 
0.390625 20.203677 0.000000 
0.390625 20.398760 0.000000 
0.390625 20.596003 0.000000 
0.651042 20.203677 0.000000 
0.651042 20.398760 0.000000 
0.651042 20.596003 0.000000 
0.130208 20.795486 0.000000 
0.130208 20.997647 0.000000 
0.130208 21.201871 0.000000 
0.390625 20.795486 0.000000 
0.390625 20.997647 0.000000 
0.390625 21.201871 0.000000 
0.651042 20.795486 0.000000 
0.651042 20.997647 0.000000 
0.651042 21.201871 0.000000 
0.130208 21.408528 0.000000 
0.130208 21.618372 0.000000 
0.130208 21.830811 0.000000 
0.390625 21.408528 0.000000 
0.390625 21.618372 0.000000 
0.390625 21.830811 0.000000 
0.651042 21.408528 0.000000 
0.651042 21.618372 0.000000 
0.651042 21.830811 0.000000 
0.130208 22.045909 0.000000 
0.130208 22.264033 0.000000 
0.130208 22.485131 0.000000 
0.390625 22.045909 0.000000 
0.390625 22.264033 0.000000 
0.390625 22.485131 0.000000 
0.651042 22.045909 0.000000 
0.651042 22.264033 0.000000 
0.651042 22.485131 0.000000 
0.130208 22.709225 0.000000 
0.130208 22.936766 0.000000 
0.130208 23.168108 0.000000 
0.390625 22.709225 0.000000 
0.390625 22.936766 0.000000 
0.390625 23.168108 0.000000 
0.651042 22.709225 0.000000 
0.651042 22.936766 0.000000 
0.651042 23.168108 0.000000 
0.130208 23.402219 0.000000 
0.130208 23.640495 0.000000 
0.130208 23.883806 0.000000 
0.390625 23.402219 0.000000 
0.390625 23.640495 0.000000 
0.390625 23.883806 0.000000 
0.651042 23.402219 0.000000 
0.651042 23.640495 0.000000 
0.651042 23.883806 0.000000 
0.130208 24.129988 0.000000 
0.130208 24.380209 0.000000 
0.130208 24.632839 0.000000 
0.390625 24.129988 0.000000 
0.390625 24.380209 0.000000 
0.390625 24.632839 0.000000 
0.651042 24.129988 0.000000 
0.651042 24.380209 0.000000 
0.651042 24.632839 0.000000 

POINT_DATA 576
SCALARS sigma_xx FLOAT 1
LOOKUP_TABLE default
0.000000
0.000000
-0.000000
0.000000
0.000000
-0.000000
0.000000
0.000000
-0.000000
0.000000
-0.000000
-0.000000
0.000000
-0.000000
-0.000000
0.000000
-0.000000
-0.000000
-0.000000
-0.000000
-0.000000
-0.000000
-0.000000
-0.000000
-0.000000
-0.000000
-0.000000
-0.000000
0.000000
-0.000000
-0.000000
-0.000000
0.000000
-0.000000
-0.000000
0.000000
-0.000000
-0.000000
-0.000000
-0.000000
-0.000000
-0.000000
-0.000000
-0.000000
-0.000000
-0.000000
-0.000000
-0.000000
-0.000000
-0.000000
0.000000
-0.000000
-0.000000
0.000000
-0.000000
-0.000000
-0.000000
-0.000000
-0.000000
-0.000000
-0.000000
-0.000000
-0.000000
-0.000000
-0.000000
-0.000000
-0.000000
-0.000000
-0.000000
-0.000000
-0.000000
-0.000000
-0.000000
-0.000000
-0.000000
-0.000000
0.000000
-0.000000
-0.000000
-0.000000
-0.000000
-0.000000
-0.000000
-0.000000
0.000000
-0.000000
-0.000000
0.000000
-0.000000
-0.000000
-0.000000
-0.000000
-0.000000
-0.000000
-0.000000
0.000000
-0.000000
-0.000000
0.000000
-0.000000
-0.000000
-0.000000
-0.000000
-0.000000
-0.000000
-0.000000
-0.000000
-0.000000
-0.000000
-0.000000
-0.000000
-0.000000
-0.000000
-0.000000
-0.000000
-0.000000
-0.000000
-0.000000
-0.000000
-0.000000
-0.000000
-0.000000
-0.000000
-0.000000
-0.000000
-0.000000
-0.000000
-0.000000
-0.000000
-0.000000
-0.000000
-0.000000
-0.000000
-0.000000
-0.000000
-0.000000
-0.000000
-0.000000
-0.000000
-0.000000
-0.000000
-0.000000
-0.000000
0.000000
-0.000000
0.000000
-0.000000
-0.000000
-0.000000
-0.000000
-0.000000
-0.000000
-0.000000
-0.000000
0.000000
-0.000000
-0.000000
0.000000
-0.000000
-0.000000
0.000000
-0.000000
-0.000000
-0.000000
-0.000000
-0.000000
-0.000000
-0.000000
-0.000000
-0.000000
-0.000000
-0.000000
0.000000
-0.000000
-0.000000
-0.000000
-0.000000
-0.000000
-0.000000
-0.000000
-0.000000
-0.000000
-0.000000
-0.000000
-0.000000
-0.000000
-0.000000
-0.000000
-0.000000
-0.000000
-0.000000
-0.000000
-0.000000
-0.000000
-0.000000
-0.000000
-0.000000
-0.000000
-0.000000
-0.000000
-0.000000
-0.000000
-0.000000
-0.000000
-0.000000
-0.000000
-0.000000
-0.000000
-0.000000
-0.000000
-0.000000
-0.000000
-0.000000
-0.000000
-0.000000
-0.000000
-0.000000
-0.000000
-0.000000
-0.000000
-0.000000
-0.000000
-0.000000
-0.000000
-0.000000
-0.000000
-0.000000
-0.000000
-0.000000
-0.000000
-0.000000
-0.000000
-0.000000
-0.000000
-0.000000
-0.000000
-0.000000
-0.000000
-0.000000
-0.000000
-0.000000
-0.000000
-0.000000
-0.000000
-0.000000
-0.000000
-0.000000
-0.000000
-0.000000
-0.000000
-0.000000
-0.000000
-0.000000
-0.000000
-0.000000
-0.000000
-0.000000
-0.000000
-0.000000
-0.000000
-0.000000
-0.000000
-0.000000
-0.000000
-0.000000
-0.000000
-0.000000
-0.000000
0.000000
0.000000
-0.000000
-0.000000
-0.000000
-0.000000
-0.000000
-0.000000
-0.000000
-0.000000
-0.000000
-0.000000
-0.000000
-0.000000
0.000000
-0.000000
-0.000000
-0.000000
-0.000000
-0.000000
-0.000000
0.000000
-0.000000
-0.000000
-0.000000
-0.000000
-0.000000
-0.000000
-0.000000
-0.000000
-0.000000
-0.000000
-0.000000
-0.000000
-0.000000
-0.000000
-0.000000
-0.000000
-0.000000
0.000000
-0.000000
-0.000000
0.000000
-0.000000
-0.000000
-0.000000
-0.000000
-0.000000
-0.000000
-0.000000
-0.000000
-0.000000
-0.000000
-0.000000
-0.000000
-0.000000
-0.000000
-0.000000
-0.000000
-0.000000
-0.000000
-0.000000
-0.000000
-0.000000
-0.000000
-0.000000
-0.000000
-0.000000
-0.000000
-0.000000
-0.000000
-0.000000
-0.000000
-0.000000
-0.000000
-0.000000
-0.000000
-0.000000
-0.000000
-0.000000
-0.000000
-0.000000
-0.000000
-0.000000
-0.000000
-0.000000
-0.000000
-0.000000
-0.000000
-0.000000
-0.000000
-0.000000
0.000000
-0.000000
-0.000000
-0.000000
-0.000000
-0.000000
0.000000
-0.000000
-0.000000
0.000000
-0.000000
-0.000000
-0.000000
-0.000000
-0.000000
-0.000000
-0.000000
-0.000000
-0.000000
-0.000000
-0.000000
-0.000000
-0.000000
-0.000000
-0.000000
-0.000000
-0.000000
-0.000000
-0.000000
-0.000000
-0.000000
-0.000000
-0.000000
-0.000000
-0.000000
-0.000000
-0.000000
-0.000000
-0.000000
-0.000000
-0.000000
-0.000000
0.000000
-0.000000
-0.000000
0.000000
-0.000000
-0.000000
-0.000000
-0.000000
-0.000000
0.000000
-0.000000
-0.000000
-0.000000
-0.000000
-0.000000
-0.000000
-0.000000
0.000000
-0.000000
-0.000000
-0.000000
-0.000000
-0.000000
-0.000000
-0.000000
-0.000000
-0.000000
-0.000000
-0.000000
-0.000000
-0.000000
-0.000000
-0.000000
-0.000000
0.000000
-0.000000
-0.000000
0.000000
-0.000000
-0.000000
-0.000000
-0.000000
-0.000000
-0.000000
-0.000000
-0.000000
-0.000000
-0.000000
-0.000000
-0.000000
-0.000000
-0.000000
-0.000000
-0.000000
-0.000000
-0.000000
-0.000000
-0.000000
-0.000000
-0.000000
-0.000000
-0.000000
-0.000000
-0.000000
-0.000000
-0.000000
-0.000000
-0.000000
-0.000000
-0.000000
-0.000000
-0.000000
-0.000000
-0.000000
-0.000000
-0.000000
-0.000000
-0.000000
-0.000000
-0.000000
-0.000000
-0.000000
-0.000000
-0.000000
-0.000000
-0.000000
-0.000000
-0.000000
-0.000000
-0.000000
-0.000000
-0.000000
-0.000000
-0.000000
-0.000000
-0.000000
-0.000000
-0.000000
-0.000000
-0.000000
-0.000000
-0.000000
0.000000
-0.000000
-0.000000
0.000000
-0.000000
-0.000000
0.000000
-0.000000
-0.000000
-0.000000
-0.000000
-0.000000
-0.000000
-0.000000
-0.000000
-0.000000
-0.000000
-0.000000
-0.000000
-0.000000
-0.000000
-0.000000
-0.000000
-0.000000
-0.000000
-0.000000
-0.000000
-0.000000
-0.000000
-0.000000
-0.000000
-0.000000
-0.000000
-0.000000
-0.000000
-0.000000
-0.000000
-0.000000
-0.000000
-0.000000
-0.000000
-0.000000
-0.000000
-0.000000
-0.000000
-0.000000
-0.000000
-0.000000
-0.000000
-0.000000
-0.000000
-0.000000
-0.000000
-0.000000
-0.000000
-0.000000
-0.000000
-0.000000
0.000000
-0.000000
-0.000000
0.000000
-0.000000
-0.000000
-0.000000
-0.000000
-0.000000
-0.000000
-0.000000
-0.000000
-0.000000
-0.000000

SCALARS sigma_yy FLOAT 1
LOOKUP_TABLE default
-36611.868806
-36611.868806
-36611.868806
-36611.868806
-36611.868806
-36611.868806
-36611.868806
-36611.868806
-36611.868806
-36426.032411
-36204.868542
-36039.721700
-36426.032411
-36204.868542
-36039.721700
-36426.032411
-36204.868542
-36039.721700
-35789.889875
-35563.535332
-35361.760876
-35789.889875
-35563.535332
-35361.760876
-35789.889875
-35563.535332
-35361.760876
-35122.138068
-34950.862637
-34807.508405
-35122.138068
-34950.862637
-34807.508405
-35122.138068
-34950.862637
-34807.508405
-34590.859660
-34404.116464
-34239.190051
-34590.859660
-34404.116464
-34239.190051
-34590.859660
-34404.116464
-34239.190051
-34018.664898
-33816.101981
-33638.818217
-34018.664898
-33816.101981
-33638.818217
-34018.664898
-33816.101981
-33638.818217
-33394.406272
-33230.125101
-33063.069646
-33394.406272
-33230.125101
-33063.069646
-33394.406272
-33230.125101
-33063.069646
-32845.093899
-32677.945775
-32491.333907
-32845.093899
-32677.945775
-32491.333907
-32845.093899
-32677.945775
-32491.333907
-32273.870351
-32086.918611
-31894.551324
-32273.870351
-32086.918611
-31894.551324
-32273.870351
-32086.918611
-31894.551324
-31675.636909
-31490.857341
-31336.335557
-31675.636909
-31490.857341
-31336.335557
-31675.636909
-31490.857341
-31336.335557
-31107.631804
-30943.414675
-30764.468267
-31107.631804
-30943.414675
-30764.468267
-31107.631804
-30943.414675
-30764.468267
-30523.480778
-30357.558522
-30167.087331
-30523.480778
-30357.558522
-30167.087331
-30523.480778
-30357.558522
-30167.087331
-29937.250826
-29765.431551
-29604.045785
-29937.250826
-29765.431551
-29604.045785
-29937.250826
-29765.431551
-29604.045785
-29350.210365
-29225.172794
-29033.880431
-29350.210365
-29225.172794
-29033.880431
-29350.210365
-29225.172794
-29033.880431
-28801.655539
-28607.008797
-28438.743206
-28801.655539
-28607.008797
-28438.743206
-28801.655539
-28607.008797
-28438.743206
-28196.342110
-28055.356052
-27863.136966
-28196.342110
-28055.356052
-27863.136966
-28196.342110
-28055.356052
-27863.136966
-27661.406567
-27439.712895
-27278.862270
-27661.406567
-27439.712895
-27278.862270
-27661.406567
-27439.712895
-27278.862270
-27082.044456
-26857.035668
-26698.705259
-27082.044456
-26857.035668
-26698.705259
-27082.044456
-26857.035668
-26698.705259
-26495.247878
-26305.251718
-26113.396564
-26495.247878
-26305.251718
-26113.396564
-26495.247878
-26305.251718
-26113.396564
-25926.362991
-25730.632269
-25533.835427
-25926.362991
-25730.632269
-25533.835427
-25926.362991
-25730.632269
-25533.835427
-25299.672668
-25160.068311
-24966.716981
-25299.672668
-25160.068311
-24966.716981
-25299.672668
-25160.068311
-24966.716981
-24745.717496
-24596.510018
-24404.207727
-24745.717496
-24596.510018
-24404.207727
-24745.717496
-24596.510018
-24404.207727
-24156.697383
-24002.124378
-23804.669087
-24156.697383
-24002.124378
-23804.669087
-24156.697383
-24002.124378
-23804.669087
-23595.177389
-23418.561984
-23230.736773
-23595.177389
-23418.561984
-23230.736773
-23595.177389
-23418.561984
-23230.736773
-23024.072384
-22816.861516
-22661.306810
-23024.072384
-22816.861516
-22661.306810
-23024.072384
-22816.861516
-22661.306810
-22442.544940
-22265.738092
-22075.579653
-22442.544940
-22265.738092
-22075.579653
-22442.544940
-22265.738092
-22075.579653
-21857.114620
-21689.620696
-21488.669684
-21857.114620
-21689.620696
-21488.669684
-21857.114620
-21689.620696
-21488.669684
-21288.669247
-21098.709235
-20923.270344
-21288.669247
-21098.709235
-20923.270344
-21288.669247
-21098.709235
-20923.270344
-20687.478510
-20537.477917
-20350.643272
-20687.478510
-20537.477917
-20350.643272
-20687.478510
-20537.477917
-20350.643272
-20117.303843
-19952.449564
-19750.971366
-20117.303843
-19952.449564
-19750.971366
-20117.303843
-19952.449564
-19750.971366
-19537.678050
-19357.158518
-19198.673341
-19537.678050
-19357.158518
-19198.673341
-19537.678050
-19357.158518
-19198.673341
-18981.593729
-18791.171596
-18612.345169
-18981.593729
-18791.171596
-18612.345169
-18981.593729
-18791.171596
-18612.345169
-18364.311175
-18223.405239
-18043.828402
-18364.311175
-18223.405239
-18043.828402
-18364.311175
-18223.405239
-18043.828402
-17793.728956
-17647.547162
-17442.656731
-17793.728956
-17647.547162
-17442.656731
-17793.728956
-17647.547162
-17442.656731
-17233.986125
-17025.128919
-16893.934246
-17233.986125
-17025.128919
-16893.934246
-17233.986125
-17025.128919
-16893.934246
-16677.276970
-16470.256681
-16303.310094
-16677.276970
-16470.256681
-16303.310094
-16677.276970
-16470.256681
-16303.310094
-16087.211525
-15891.236596
-15706.153455
-16087.211525
-15891.236596
-15706.153455
-16087.211525
-15891.236596
-15706.153455
-15527.253205
-15308.329812
-15158.177556
-15527.253205
-15308.329812
-15158.177556
-15527.253205
-15308.329812
-15158.177556
-14914.948239
-14731.745142
-14558.894127
-14914.948239
-14731.745142
-14558.894127
-14914.948239
-14731.745142
-14558.894127
-14357.703034
-14163.354875
-13968.339672
-14357.703034
-14163.354875
-13968.339672
-14357.703034
-14163.354875
-13968.339672
-13782.786887
-13568.118968
-13394.267134
-13782.786887
-13568.118968
-13394.267134
-13782.786887
-13568.118968
-13394.267134
-13204.907938
-13016.444149
-12797.728598
-13204.907938
-13016.444149
-12797.728598
-13204.907938
-13016.444149
-12797.728598
-12624.881543
-12442.275591
-12227.578024
-12624.881543
-12442.275591
-12227.578024
-12624.881543
-12442.275591
-12227.578024
-12045.799754
-11855.201792
-11664.584081
-12045.799754
-11855.201792
-11664.584081
-12045.799754
-11855.201792
-11664.584081
-11450.350405
-11283.719126
-11080.487130
-11450.350405
-11283.719126
-11080.487130
-11450.350405
-11283.719126
-11080.487130
-10884.776558
-10696.973358
-10502.557352
-10884.776558
-10696.973358
-10502.557352
-10884.776558
-10696.973358
-10502.557352
-10318.211575
-10119.334258
-9926.473571
-10318.211575
-10119.334258
-9926.473571
-10318.211575
-10119.334258
-9926.473571
-9721.567884
-9545.486078
-9343.602976
-9721.567884
-9545.486078
-9343.602976
-9721.567884
-9545.486078
-9343.602976
-9148.459133
-8967.461496
-8787.626299
-9148.459133
-8967.461496
-8787.626299
-9148.459133
-8967.461496
-8787.626299
-8552.384626
-8395.424495
-8199.381849
-8552.384626
-8395.424495
-8199.381849
-8552.384626
-8395.424495
-8199.381849
-7980.111989
-7789.001807
-7627.973505
-7980.111989
-7789.001807
-7627.973505
-7980.111989
-7789.001807
-7627.973505
-7406.398882
-7223.074021
-7039.023345
-7406.398882
-7223.074021
-7039.023345
-7406.398882
-7223.074021
-7039.023345
-6832.947971
-6643.423161
-6459.903464
-6832.947971
-6643.423161
-6459.903464
-6832.947971
-6643.423161
-6459.903464
-6257.080700
-6092.300631
-5878.695142
-6257.080700
-6092.300631
-5878.695142
-6257.080700
-6092.300631
-5878.695142
-5689.556682
-5494.336609
-5302.811649
-5689.556682
-5494.336609
-5302.811649
-5689.556682
-5494.336609
-5302.811649
-5089.509219
-4923.036296
-4718.898238
-5089.509219
-4923.036296
-4718.898238
-5089.509219
-4923.036296
-4718.898238
-4513.571080
-4327.776210
-4159.090330
-4513.571080
-4327.776210
-4159.090330
-4513.571080
-4327.776210
-4159.090330
-3940.977607
-3754.006242
-3581.268071
-3940.977607
-3754.006242
-3581.268071
-3940.977607
-3754.006242
-3581.268071
-3370.762541
-3173.004459
-3015.246618
-3370.762541
-3173.004459
-3015.246618
-3370.762541
-3173.004459
-3015.246618
-2801.738886
-2569.851731
-2423.238615
-2801.738886
-2569.851731
-2423.238615
-2801.738886
-2569.851731
-2423.238615
-2214.887839
-2011.807750
-1846.227237
-2214.887839
-2011.807750
-1846.227237
-2214.887839
-2011.807750
-1846.227237
-1647.062904
-1427.437438
-1264.312725
-1647.062904
-1427.437438
-1264.312725
-1647.062904
-1427.437438