# vtk DataFile Version 2.0
MATLAB generated vtk file, WMC
ASCII
DATASET UNSTRUCTURED_GRID
<<<<<<< Updated upstream
POINTS 2048 double
0.024414 0.008012 0.000000 
0.024414 0.024035 0.000000 
0.073242 0.008012 0.000000 
0.073242 0.024035 0.000000 
0.024414 0.040060 0.000000 
0.024414 0.056095 0.000000 
0.073242 0.040060 0.000000 
0.073242 0.056095 0.000000 
0.024414 0.072139 0.000000 
0.024414 0.088192 0.000000 
0.073242 0.072139 0.000000 
0.073242 0.088192 0.000000 
0.024414 0.104255 0.000000 
0.024414 0.120326 0.000000 
0.073242 0.104255 0.000000 
0.073242 0.120326 0.000000 
0.024414 0.136404 0.000000 
0.024414 0.152490 0.000000 
0.073242 0.136404 0.000000 
0.073242 0.152490 0.000000 
0.024414 0.168585 0.000000 
0.024414 0.184688 0.000000 
0.073242 0.168585 0.000000 
0.073242 0.184688 0.000000 
0.024414 0.200800 0.000000 
0.024414 0.216921 0.000000 
0.073242 0.200800 0.000000 
0.073242 0.216921 0.000000 
0.024414 0.233049 0.000000 
0.024414 0.249186 0.000000 
0.073242 0.233049 0.000000 
0.073242 0.249186 0.000000 
0.024414 0.265331 0.000000 
0.024414 0.281485 0.000000 
0.073242 0.265331 0.000000 
0.073242 0.281485 0.000000 
0.024414 0.297648 0.000000 
0.024414 0.313818 0.000000 
0.073242 0.297648 0.000000 
0.073242 0.313818 0.000000 
0.024414 0.329997 0.000000 
0.024414 0.346184 0.000000 
0.073242 0.329997 0.000000 
0.073242 0.346184 0.000000 
0.024414 0.362380 0.000000 
0.024414 0.378585 0.000000 
0.073242 0.362380 0.000000 
0.073242 0.378585 0.000000 
0.024414 0.394799 0.000000 
0.024414 0.411020 0.000000 
0.073242 0.394799 0.000000 
0.073242 0.411020 0.000000 
0.024414 0.427250 0.000000 
0.024414 0.443489 0.000000 
0.073242 0.427250 0.000000 
0.073242 0.443489 0.000000 
0.024414 0.459735 0.000000 
0.024414 0.475991 0.000000 
0.073242 0.459735 0.000000 
0.073242 0.475991 0.000000 
0.024414 0.492255 0.000000 
0.024414 0.508529 0.000000 
0.073242 0.492255 0.000000 
0.073242 0.508529 0.000000 
0.024414 0.524810 0.000000 
0.024414 0.541100 0.000000 
0.073242 0.524810 0.000000 
0.073242 0.541100 0.000000 
0.024414 0.557398 0.000000 
0.024414 0.573705 0.000000 
0.073242 0.557398 0.000000 
0.073242 0.573705 0.000000 
0.024414 0.590022 0.000000 
0.024414 0.606346 0.000000 
0.073242 0.590022 0.000000 
0.073242 0.606346 0.000000 
0.024414 0.622679 0.000000 
0.024414 0.639021 0.000000 
0.073242 0.622679 0.000000 
0.073242 0.639021 0.000000 
0.024414 0.655371 0.000000 
0.024414 0.671730 0.000000 
0.073242 0.655371 0.000000 
0.073242 0.671730 0.000000 
0.024414 0.688098 0.000000 
0.024414 0.704475 0.000000 
0.073242 0.688098 0.000000 
0.073242 0.704475 0.000000 
0.024414 0.720861 0.000000 
0.024414 0.737254 0.000000 
0.073242 0.720861 0.000000 
0.073242 0.737254 0.000000 
0.024414 0.753657 0.000000 
0.024414 0.770069 0.000000 
0.073242 0.753657 0.000000 
0.073242 0.770069 0.000000 
0.024414 0.786489 0.000000 
0.024414 0.802919 0.000000 
0.073242 0.786489 0.000000 
0.073242 0.802919 0.000000 
0.024414 0.819356 0.000000 
0.024414 0.835803 0.000000 
0.073242 0.819356 0.000000 
0.073242 0.835803 0.000000 
0.024414 0.852259 0.000000 
0.024414 0.868723 0.000000 
0.073242 0.852259 0.000000 
0.073242 0.868723 0.000000 
0.024414 0.885196 0.000000 
0.024414 0.901679 0.000000 
0.073242 0.885196 0.000000 
0.073242 0.901679 0.000000 
0.024414 0.918169 0.000000 
0.024414 0.934669 0.000000 
0.073242 0.918169 0.000000 
0.073242 0.934669 0.000000 
0.024414 0.951178 0.000000 
0.024414 0.967696 0.000000 
0.073242 0.951178 0.000000 
0.073242 0.967696 0.000000 
0.024414 0.984223 0.000000 
0.024414 1.000758 0.000000 
0.073242 0.984223 0.000000 
0.073242 1.000758 0.000000 
0.024414 1.017303 0.000000 
0.024414 1.033855 0.000000 
0.073242 1.017303 0.000000 
0.073242 1.033855 0.000000 
0.024414 1.050418 0.000000 
0.024414 1.066988 0.000000 
0.073242 1.050418 0.000000 
0.073242 1.066988 0.000000 
0.024414 1.083569 0.000000 
0.024414 1.100158 0.000000 
0.073242 1.083569 0.000000 
0.073242 1.100158 0.000000 
0.024414 1.116756 0.000000 
0.024414 1.133363 0.000000 
0.073242 1.116756 0.000000 
0.073242 1.133363 0.000000 
0.024414 1.149979 0.000000 
0.024414 1.166605 0.000000 
0.073242 1.149979 0.000000 
0.073242 1.166605 0.000000 
0.024414 1.183239 0.000000 
0.024414 1.199882 0.000000 
0.073242 1.183239 0.000000 
0.073242 1.199882 0.000000 
0.024414 1.216534 0.000000 
0.024414 1.233195 0.000000 
0.073242 1.216534 0.000000 
0.073242 1.233195 0.000000 
0.024414 1.249866 0.000000 
0.024414 1.266546 0.000000 
0.073242 1.249866 0.000000 
0.073242 1.266546 0.000000 
0.024414 1.283235 0.000000 
0.024414 1.299933 0.000000 
0.073242 1.283235 0.000000 
0.073242 1.299933 0.000000 
0.024414 1.316640 0.000000 
0.024414 1.333357 0.000000 
0.073242 1.316640 0.000000 
0.073242 1.333357 0.000000 
0.024414 1.350082 0.000000 
0.024414 1.366818 0.000000 
0.073242 1.350082 0.000000 
0.073242 1.366818 0.000000 
0.024414 1.383562 0.000000 
0.024414 1.400314 0.000000 
0.073242 1.383562 0.000000 
0.073242 1.400314 0.000000 
0.024414 1.417077 0.000000 
0.024414 1.433849 0.000000 
0.073242 1.417077 0.000000 
0.073242 1.433849 0.000000 
0.024414 1.450630 0.000000 
0.024414 1.467420 0.000000 
0.073242 1.450630 0.000000 
0.073242 1.467420 0.000000 
0.024414 1.484219 0.000000 
0.024414 1.501028 0.000000 
0.073242 1.484219 0.000000 
0.073242 1.501028 0.000000 
0.024414 1.517846 0.000000 
0.024414 1.534672 0.000000 
0.073242 1.517846 0.000000 
0.073242 1.534672 0.000000 
0.024414 1.551510 0.000000 
0.024414 1.568355 0.000000 
0.073242 1.551510 0.000000 
0.073242 1.568355 0.000000 
0.024414 1.585210 0.000000 
0.024414 1.602075 0.000000 
0.073242 1.585210 0.000000 
0.073242 1.602075 0.000000 
0.024414 1.618948 0.000000 
0.024414 1.635832 0.000000 
0.073242 1.618948 0.000000 
0.073242 1.635832 0.000000 
0.024414 1.652725 0.000000 
0.024414 1.669628 0.000000 
0.073242 1.652725 0.000000 
0.073242 1.669628 0.000000 
0.024414 1.686540 0.000000 
0.024414 1.703461 0.000000 
0.073242 1.686540 0.000000 
0.073242 1.703461 0.000000 
0.024414 1.720392 0.000000 
0.024414 1.737332 0.000000 
0.073242 1.720392 0.000000 
0.073242 1.737332 0.000000 
0.024414 1.754281 0.000000 
0.024414 1.771240 0.000000 
0.073242 1.754281 0.000000 
0.073242 1.771240 0.000000 
0.024414 1.788210 0.000000 
0.024414 1.805187 0.000000 
0.073242 1.788210 0.000000 
0.073242 1.805187 0.000000 
0.024414 1.822175 0.000000 
0.024414 1.839172 0.000000 
0.073242 1.822175 0.000000 
0.073242 1.839172 0.000000 
0.024414 1.856179 0.000000 
0.024414 1.873195 0.000000 
0.073242 1.856179 0.000000 
0.073242 1.873195 0.000000 
0.024414 1.890220 0.000000 
0.024414 1.907256 0.000000 
0.073242 1.890220 0.000000 
0.073242 1.907256 0.000000 
0.024414 1.924302 0.000000 
0.024414 1.941356 0.000000 
0.073242 1.924302 0.000000 
0.073242 1.941356 0.000000 
0.024414 1.958422 0.000000 
0.024414 1.975496 0.000000 
0.073242 1.958422 0.000000 
0.073242 1.975496 0.000000 
0.024414 1.992580 0.000000 
0.024414 2.009674 0.000000 
0.073242 1.992580 0.000000 
0.073242 2.009674 0.000000 
0.024414 2.026777 0.000000 
0.024414 2.043890 0.000000 
0.073242 2.026777 0.000000 
0.073242 2.043890 0.000000 
0.024414 2.061011 0.000000 
0.024414 2.078144 0.000000 
0.073242 2.061011 0.000000 
0.073242 2.078144 0.000000 
0.024414 2.095286 0.000000 
0.024414 2.112438 0.000000 
0.073242 2.095286 0.000000 
0.073242 2.112438 0.000000 
0.024414 2.129599 0.000000 
0.024414 2.146772 0.000000 
0.073242 2.129599 0.000000 
0.073242 2.146772 0.000000 
0.024414 2.163953 0.000000 
0.024414 2.181144 0.000000 
0.073242 2.163953 0.000000 
0.073242 2.181144 0.000000 
0.024414 2.198344 0.000000 
0.024414 2.215555 0.000000 
0.073242 2.198344 0.000000 
0.073242 2.215555 0.000000 
0.024414 2.232776 0.000000 
0.024414 2.250006 0.000000 
0.073242 2.232776 0.000000 
0.073242 2.250006 0.000000 
0.024414 2.267247 0.000000 
0.024414 2.284497 0.000000 
0.073242 2.267247 0.000000 
0.073242 2.284497 0.000000 
0.024414 2.301758 0.000000 
0.024414 2.319027 0.000000 
0.073242 2.301758 0.000000 
0.073242 2.319027 0.000000 
0.024414 2.336307 0.000000 
0.024414 2.353599 0.000000 
0.073242 2.336307 0.000000 
0.073242 2.353599 0.000000 
0.024414 2.370898 0.000000 
0.024414 2.388207 0.000000 
0.073242 2.370898 0.000000 
0.073242 2.388207 0.000000 
0.024414 2.405528 0.000000 
0.024414 2.422858 0.000000 
0.073242 2.405528 0.000000 
0.073242 2.422858 0.000000 
0.024414 2.440199 0.000000 
0.024414 2.457549 0.000000 
0.073242 2.440199 0.000000 
0.073242 2.457549 0.000000 
0.024414 2.474910 0.000000 
0.024414 2.492281 0.000000 
0.073242 2.474910 0.000000 
0.073242 2.492281 0.000000 
0.024414 2.509661 0.000000 
0.024414 2.527052 0.000000 
0.073242 2.509661 0.000000 
0.073242 2.527052 0.000000 
0.024414 2.544451 0.000000 
0.024414 2.561863 0.000000 
0.073242 2.544451 0.000000 
0.073242 2.561863 0.000000 
0.024414 2.579283 0.000000 
0.024414 2.596714 0.000000 
0.073242 2.579283 0.000000 
0.073242 2.596714 0.000000 
0.024414 2.614156 0.000000 
0.024414 2.631608 0.000000 
0.073242 2.614156 0.000000 
0.073242 2.631608 0.000000 
0.024414 2.649069 0.000000 
0.024414 2.666542 0.000000 
0.073242 2.649069 0.000000 
0.073242 2.666542 0.000000 
0.024414 2.684025 0.000000 
0.024414 2.701517 0.000000 
0.073242 2.684025 0.000000 
0.073242 2.701517 0.000000 
0.024414 2.719021 0.000000 
0.024414 2.736533 0.000000 
0.073242 2.719021 0.000000 
0.073242 2.736533 0.000000 
0.024414 2.754057 0.000000 
0.024414 2.771591 0.000000 
0.073242 2.754057 0.000000 
0.073242 2.771591 0.000000 
0.024414 2.789133 0.000000 
0.024414 2.806687 0.000000 
0.073242 2.789133 0.000000 
0.073242 2.806687 0.000000 
0.024414 2.824252 0.000000 
0.024414 2.841827 0.000000 
0.073242 2.824252 0.000000 
0.073242 2.841827 0.000000 
0.024414 2.859414 0.000000 
0.024414 2.877010 0.000000 
0.073242 2.859414 0.000000 
0.073242 2.877010 0.000000 
0.024414 2.894618 0.000000 
0.024414 2.912234 0.000000 
0.073242 2.894618 0.000000 
0.073242 2.912234 0.000000 
0.024414 2.929860 0.000000 
0.024414 2.947498 0.000000 
0.073242 2.929860 0.000000 
0.073242 2.947498 0.000000 
[...]
POINT_DATA 2048
SCALARS sigma_xx FLOAT 1
LOOKUP_TABLE default
0.000000
-0.000000
0.000000
-0.000000
-0.000000
-0.000000
-0.000000
-0.000000
-0.000000
-0.000000
-0.000000
-0.000000
-0.000000
0.000000
-0.000000
0.000000
-0.000000
-0.000000
-0.000000
-0.000000
-0.000000
-0.000000
-0.000000
-0.000000
=======
POINTS 288 double
0.520833 0.178492 0.000000 
0.520833 0.535476 0.000000 
0.520833 0.892460 0.000000 
0.520833 1.249444 0.000000 
0.520833 1.606428 0.000000 
0.520833 1.963412 0.000000 
1.562500 0.178492 0.000000 
1.562500 0.535476 0.000000 
1.562500 0.892460 0.000000 
1.562500 1.249444 0.000000 
1.562500 1.606428 0.000000 
1.562500 1.963412 0.000000 
2.604167 0.178492 0.000000 
2.604167 0.535476 0.000000 
2.604167 0.892460 0.000000 
2.604167 1.249444 0.000000 
2.604167 1.606428 0.000000 
2.604167 1.963412 0.000000 
3.645833 0.178492 0.000000 
3.645833 0.535476 0.000000 
3.645833 0.892460 0.000000 
3.645833 1.249444 0.000000 
3.645833 1.606428 0.000000 
3.645833 1.963412 0.000000 
4.687500 0.178492 0.000000 
4.687500 0.535476 0.000000 
4.687500 0.892460 0.000000 
4.687500 1.249444 0.000000 
4.687500 1.606428 0.000000 
4.687500 1.963412 0.000000 
5.729167 0.178492 0.000000 
5.729167 0.535476 0.000000 
5.729167 0.892460 0.000000 
5.729167 1.249444 0.000000 
5.729167 1.606428 0.000000 
5.729167 1.963412 0.000000 
0.520833 2.322688 0.000000 
0.520833 2.688053 0.000000 
0.520833 3.059115 0.000000 
0.520833 3.435597 0.000000 
0.520833 3.817064 0.000000 
0.520833 4.202800 0.000000 
1.562500 2.322688 0.000000 
1.562500 2.688053 0.000000 
1.562500 3.059115 0.000000 
1.562500 3.435597 0.000000 
1.562500 3.817064 0.000000 
1.562500 4.202800 0.000000 
2.604167 2.322688 0.000000 
2.604167 2.688053 0.000000 
2.604167 3.059115 0.000000 
2.604167 3.435597 0.000000 
2.604167 3.817064 0.000000 
2.604167 4.202800 0.000000 
3.645833 2.322688 0.000000 
3.645833 2.688053 0.000000 
3.645833 3.059115 0.000000 
3.645833 3.435597 0.000000 
3.645833 3.817064 0.000000 
3.645833 4.202800 0.000000 
4.687500 2.322688 0.000000 
4.687500 2.688053 0.000000 
4.687500 3.059115 0.000000 
4.687500 3.435597 0.000000 
4.687500 3.817064 0.000000 
4.687500 4.202800 0.000000 
5.729167 2.322688 0.000000 
5.729167 2.688053 0.000000 
5.729167 3.059115 0.000000 
5.729167 3.435597 0.000000 
5.729167 3.817064 0.000000 
5.729167 4.202800 0.000000 
0.520833 4.594480 0.000000 
0.520833 4.994001 0.000000 
0.520833 5.401271 0.000000 
0.520833 5.816236 0.000000 
0.520833 6.238653 0.000000 
0.520833 6.666141 0.000000 
1.562500 4.594480 0.000000 
1.562500 4.994001 0.000000 
1.562500 5.401271 0.000000 
1.562500 5.816236 0.000000 
1.562500 6.238653 0.000000 
1.562500 6.666141 0.000000 
2.604167 4.594480 0.000000 
2.604167 4.994001 0.000000 
2.604167 5.401271 0.000000 
2.604167 5.816236 0.000000 
2.604167 6.238653 0.000000 
2.604167 6.666141 0.000000 
3.645833 4.594480 0.000000 
3.645833 4.994001 0.000000 
3.645833 5.401271 0.000000 
3.645833 5.816236 0.000000 
3.645833 6.238653 0.000000 
3.645833 6.666141 0.000000 
4.687500 4.594480 0.000000 
4.687500 4.994001 0.000000 
4.687500 5.401271 0.000000 
4.687500 5.816236 0.000000 
4.687500 6.238653 0.000000 
4.687500 6.666141 0.000000 
5.729167 4.594480 0.000000 
5.729167 4.994001 0.000000 
5.729167 5.401271 0.000000 
5.729167 5.816236 0.000000 
5.729167 6.238653 0.000000 
5.729167 6.666141 0.000000 
0.520833 7.099005 0.000000 
0.520833 7.538199 0.000000 
0.520833 7.984277 0.000000 
0.520833 8.437181 0.000000 
0.520833 8.896817 0.000000 
0.520833 9.363122 0.000000 
1.562500 7.099005 0.000000 
1.562500 7.538199 0.000000 
1.562500 7.984277 0.000000 
1.562500 8.437181 0.000000 
1.562500 8.896817 0.000000 
1.562500 9.363122 0.000000 
2.604167 7.099005 0.000000 
2.604167 7.538199 0.000000 
2.604167 7.984277 0.000000 
2.604167 8.437181 0.000000 
2.604167 8.896817 0.000000 
2.604167 9.363122 0.000000 
3.645833 7.099005 0.000000 
3.645833 7.538199 0.000000 
3.645833 7.984277 0.000000 
3.645833 8.437181 0.000000 
3.645833 8.896817 0.000000 
3.645833 9.363122 0.000000 
4.687500 7.099005 0.000000 
4.687500 7.538199 0.000000 
4.687500 7.984277 0.000000 
4.687500 8.437181 0.000000 
4.687500 8.896817 0.000000 
4.687500 9.363122 0.000000 
5.729167 7.099005 0.000000 
5.729167 7.538199 0.000000 
5.729167 7.984277 0.000000 
5.729167 8.437181 0.000000 
5.729167 8.896817 0.000000 
5.729167 9.363122 0.000000 
0.520833 9.838164 0.000000 
0.520833 10.323049 0.000000 
0.520833 10.819052 0.000000 
0.520833 11.325408 0.000000 
0.520833 11.843041 0.000000 
0.520833 12.372110 0.000000 
1.562500 9.838164 0.000000 
1.562500 10.323049 0.000000 
1.562500 10.819052 0.000000 
1.562500 11.325408 0.000000 
1.562500 11.843041 0.000000 
1.562500 12.372110 0.000000 
2.604167 9.838164 0.000000 
2.604167 10.323049 0.000000 
2.604167 10.819052 0.000000 
2.604167 11.325408 0.000000 
2.604167 11.843041 0.000000 
2.604167 12.372110 0.000000 
3.645833 9.838164 0.000000 
3.645833 10.323049 0.000000 
3.645833 10.819052 0.000000 
3.645833 11.325408 0.000000 
3.645833 11.843041 0.000000 
3.645833 12.372110 0.000000 
4.687500 9.838164 0.000000 
4.687500 10.323049 0.000000 
4.687500 10.819052 0.000000 
4.687500 11.325408 0.000000 
4.687500 11.843041 0.000000 
4.687500 12.372110 0.000000 
5.729167 9.838164 0.000000 
5.729167 10.323049 0.000000 
5.729167 10.819052 0.000000 
5.729167 11.325408 0.000000 
5.729167 11.843041 0.000000 
5.729167 12.372110 0.000000 
0.520833 12.913226 0.000000 
0.520833 13.465452 0.000000 
0.520833 14.029599 0.000000 
0.520833 14.606016 0.000000 
0.520833 15.197205 0.000000 
0.520833 15.801531 0.000000 
1.562500 12.913226 0.000000 
1.562500 13.465452 0.000000 
1.562500 14.029599 0.000000 
1.562500 14.606016 0.000000 
1.562500 15.197205 0.000000 
1.562500 15.801531 0.000000 
2.604167 12.913226 0.000000 
2.604167 13.465452 0.000000 
2.604167 14.029599 0.000000 
2.604167 14.606016 0.000000 
2.604167 15.197205 0.000000 
2.604167 15.801531 0.000000 
3.645833 12.913226 0.000000 
3.645833 13.465452 0.000000 
3.645833 14.029599 0.000000 
3.645833 14.606016 0.000000 
3.645833 15.197205 0.000000 
3.645833 15.801531 0.000000 
4.687500 12.913226 0.000000 
4.687500 13.465452 0.000000 
4.687500 14.029599 0.000000 
4.687500 14.606016 0.000000 
4.687500 15.197205 0.000000 
4.687500 15.801531 0.000000 
5.729167 12.913226 0.000000 
5.729167 13.465452 0.000000 
5.729167 14.029599 0.000000 
5.729167 14.606016 0.000000 
5.729167 15.197205 0.000000 
5.729167 15.801531 0.000000 
0.520833 16.423888 0.000000 
0.520833 17.066982 0.000000 
0.520833 17.731577 0.000000 
0.520833 18.421975 0.000000 
0.520833 19.138223 0.000000 
0.520833 19.874124 0.000000 
1.562500 16.423888 0.000000 
1.562500 17.066982 0.000000 
1.562500 17.731577 0.000000 
1.562500 18.421975 0.000000 
1.562500 19.138223 0.000000 
1.562500 19.874124 0.000000 
2.604167 16.423888 0.000000 
2.604167 17.066982 0.000000 
2.604167 17.731577 0.000000 
2.604167 18.421975 0.000000 
2.604167 19.138223 0.000000 
2.604167 19.874124 0.000000 
3.645833 16.423888 0.000000 
3.645833 17.066982 0.000000 
3.645833 17.731577 0.000000 
3.645833 18.421975 0.000000 
3.645833 19.138223 0.000000 
3.645833 19.874124 0.000000 
4.687500 16.423888 0.000000 
4.687500 17.066982 0.000000 
4.687500 17.731577 0.000000 
4.687500 18.421975 0.000000 
4.687500 19.138223 0.000000 
4.687500 19.874124 0.000000 
5.729167 16.423888 0.000000 
5.729167 17.066982 0.000000 
5.729167 17.731577 0.000000 
5.729167 18.421975 0.000000 
5.729167 19.138223 0.000000 
5.729167 19.874124 0.000000 
0.520833 20.636836 0.000000 
0.520833 21.431259 0.000000 
0.520833 22.259992 0.000000 
0.520833 23.131067 0.000000 
0.520833 24.046480 0.000000 
0.520833 25.011684 0.000000 
1.562500 20.636836 0.000000 
1.562500 21.431259 0.000000 
1.562500 22.259992 0.000000 
1.562500 23.131067 0.000000 
1.562500 24.046480 0.000000 
1.562500 25.011684 0.000000 
2.604167 20.636836 0.000000 
2.604167 21.431259 0.000000 
2.604167 22.259992 0.000000 
2.604167 23.131067 0.000000 
2.604167 24.046480 0.000000 
2.604167 25.011684 0.000000 
3.645833 20.636836 0.000000 
3.645833 21.431259 0.000000 
3.645833 22.259992 0.000000 
3.645833 23.131067 0.000000 
3.645833 24.046480 0.000000 
3.645833 25.011684 0.000000 
4.687500 20.636836 0.000000 
4.687500 21.431259 0.000000 
4.687500 22.259992 0.000000 
4.687500 23.131067 0.000000 
4.687500 24.046480 0.000000 
4.687500 25.011684 0.000000 
5.729167 20.636836 0.000000 
5.729167 21.431259 0.000000 
5.729167 22.259992 0.000000 
5.729167 23.131067 0.000000 
5.729167 24.046480 0.000000 
5.729167 25.011684 0.000000 

POINT_DATA 288
SCALARS sigma_xx FLOAT 1
LOOKUP_TABLE default
0.000000
0.000000
0.000000
0.000000
-0.000000
-0.000000
>>>>>>> Stashed changes
0.000000
0.000000
0.000000
0.000000
0.000000
-0.000000
0.000000
<<<<<<< Updated upstream
-0.000000
-0.000000
-0.000000
-0.000000
-0.000000
-0.000000
-0.000000
-0.000000
-0.000000
-0.000000
-0.000000
-0.000000
0.000000
-0.000000
-0.000000
-0.000000
-0.000000
-0.000000
-0.000000
-0.000000
-0.000000
-0.000000
-0.000000
-0.000000
-0.000000
-0.000000
-0.000000
-0.000000
-0.000000
-0.000000
-0.000000
-0.000000
-0.000000
-0.000000
-0.000000
-0.000000
-0.000000
-0.000000
-0.000000
-0.000000
-0.000000
-0.000000
-0.000000
-0.000000
-0.000000
-0.000000
-0.000000
-0.000000
-0.000000
-0.000000
-0.000000
-0.000000
-0.000000
-0.000000
-0.000000
-0.000000
0.000000
-0.000000
0.000000
-0.000000
0.000000
-0.000000
-0.000000
-0.000000
-0.000000
-0.000000
0.000000
-0.000000
-0.000000
-0.000000
-0.000000
-0.000000
-0.000000
-0.000000
-0.000000
-0.000000
-0.000000
-0.000000
-0.000000
-0.000000
-0.000000
-0.000000
-0.000000
-0.000000
-0.000000
-0.000000
-0.000000
-0.000000
-0.000000
-0.000000
0.000000
-0.000000
-0.000000
-0.000000
-0.000000
-0.000000
-0.000000
0.000000
-0.000000
-0.000000
-0.000000
-0.000000
-0.000000
-0.000000
-0.000000
-0.000000
-0.000000
-0.000000
0.000000
-0.000000
-0.000000
-0.000000
-0.000000
-0.000000
-0.000000
-0.000000
-0.000000
-0.000000
-0.000000
-0.000000
-0.000000
-0.000000
-0.000000
-0.000000
-0.000000
-0.000000
0.000000
-0.000000
0.000000
-0.000000
-0.000000
-0.000000
-0.000000
-0.000000
-0.000000
-0.000000
-0.000000
-0.000000
-0.000000
0.000000
-0.000000
-0.000000
-0.000000
-0.000000
-0.000000
-0.000000
-0.000000
-0.000000
-0.000000
-0.000000
-0.000000
-0.000000
-0.000000
-0.000000
-0.000000
-0.000000
-0.000000
-0.000000
-0.000000
-0.000000
-0.000000
-0.000000
0.000000
-0.000000
-0.000000
-0.000000
-0.000000
-0.000000
-0.000000
-0.000000
-0.000000
-0.000000
-0.000000
-0.000000
-0.000000
-0.000000
-0.000000
-0.000000
0.000000
-0.000000
-0.000000
-0.000000
-0.000000
-0.000000
-0.000000
-0.000000
-0.000000
-0.000000
-0.000000
-0.000000
-0.000000
-0.000000
-0.000000
-0.000000
-0.000000
-0.000000
-0.000000
-0.000000
-0.000000
-0.000000
-0.000000
0.000000
-0.000000
0.000000
-0.000000
-0.000000
0.000000
-0.000000
=======
0.000000
0.000000
0.000000
0.000000
-0.000000
0.000000
0.000000
0.000000
0.000000
0.000000
-0.000000
0.000000
0.000000
0.000000
0.000000
0.000000
-0.000000
0.000000
0.000000
0.000000
>>>>>>> Stashed changes
0.000000
-0.000000
-0.000000
-0.000000
-0.000000
-0.000000
-0.000000
-0.000000
-0.000000
-0.000000
-0.000000
-0.000000
-0.000000
-0.000000
-0.000000
-0.000000
-0.000000
-0.000000
-0.000000
-0.000000
-0.000000
-0.000000
-0.000000
-0.000000
-0.000000
-0.000000
-0.000000
-0.000000
-0.000000
-0.000000
-0.000000
-0.000000
-0.000000
-0.000000
-0.000000
-0.000000
-0.000000
-0.000000
-0.000000
-0.000000
-0.000000
-0.000000
-0.000000
-0.000000
-0.000000
-0.000000
-0.000000
-0.000000
-0.000000
-0.000000
-0.000000
-0.000000
-0.000000
-0.000000
-0.000000
-0.000000
-0.000000
-0.000000
<<<<<<< Updated upstream
0.000000
-0.000000
-0.000000
-0.000000
-0.000000
-0.000000
-0.000000
-0.000000
-0.000000
-0.000000
-0.000000
-0.000000
-0.000000
-0.000000
-0.000000
-0.000000
-0.000000
-0.000000
-0.000000
-0.000000
-0.000000
-0.000000
-0.000000
-0.000000
-0.000000
-0.000000
-0.000000
-0.000000
-0.000000
-0.000000
-0.000000
-0.000000
-0.000000
-0.000000
-0.000000
-0.000000
-0.000000
-0.000000
-0.000000
-0.000000
-0.000000
-0.000000
-0.000000
-0.000000
-0.000000
-0.000000
-0.000000
-0.000000
=======
>>>>>>> Stashed changes
-0.000000
-0.000000
-0.000000
-0.000000
-0.000000
-0.000000
-0.000000
-0.000000
-0.000000
-0.000000
-0.000000
-0.000000
-0.000000
<<<<<<< Updated upstream
-0.000000
-0.000000
-0.000000
-0.000000
-0.000000
-0.000000
-0.000000
-0.000000
-0.000000
-0.000000
-0.000000
-0.000000
-0.000000
-0.000000
-0.000000
-0.000000
-0.000000
-0.000000
-0.000000
-0.000000
-0.000000
-0.000000
-0.000000
-0.000000
-0.000000
-0.000000
-0.000000
-0.000000
-0.000000
-0.000000
0.000000
-0.000000
-0.000000
-0.000000
-0.000000
-0.000000
-0.000000
-0.000000
-0.000000
-0.000000
-0.000000
-0.000000
-0.000000
-0.000000
-0.000000
-0.000000
-0.000000
-0.000000
-0.000000
-0.000000
-0.000000
-0.000000
-0.000000
-0.000000
-0.000000
-0.000000
-0.000000
-0.000000
-0.000000
-0.000000
-0.000000
-0.000000
-0.000000
-0.000000
0.000000
-0.000000
-0.000000
-0.000000
-0.000000
-0.000000
-0.000000
-0.000000
-0.000000
-0.000000
-0.000000
-0.000000
-0.000000
-0.000000
-0.000000
-0.000000
-0.000000
-0.000000
-0.000000
-0.000000
-0.000000
-0.000000
-0.000000
-0.000000
0.000000
-0.000000
-0.000000
-0.000000
-0.000000
-0.000000
-0.000000
-0.000000
-0.000000
-0.000000
-0.000000
-0.000000
-0.000000
-0.000000
-0.000000
-0.000000
-0.000000
-0.000000
-0.000000
-0.000000
-0.000000
-0.000000
-0.000000
-0.000000
-0.000000
-0.000000
-0.000000
-0.000000
-0.000000
-0.000000
-0.000000
-0.000000
-0.000000
-0.000000
-0.000000
-0.000000
-0.000000
-0.000000
-0.000000
-0.000000
-0.000000
-0.000000
-0.000000
-0.000000
-0.000000
-0.000000
-0.000000
-0.000000
-0.000000
-0.000000
-0.000000
-0.000000
-0.000000
-0.000000
-0.000000
-0.000000
-0.000000
-0.000000
-0.000000
-0.000000
-0.000000
-0.000000
-0.000000
-0.000000
-0.000000
-0.000000
-0.000000
-0.000000
-0.000000
-0.000000
-0.000000
-0.000000
-0.000000
-0.000000
-0.000000
-0.000000
-0.000000
-0.000000
-0.000000
-0.000000
-0.000000
-0.000000
-0.000000
-0.000000
-0.000000
-0.000000
-0.000000
-0.000000
-0.000000
-0.000000
-0.000000
-0.000000
-0.000000
-0.000000
-0.000000
-0.000000
-0.000000
-0.000000
-0.000000
-0.000000
0.000000
-0.000000
-0.000000
-0.000000
-0.000000
-0.000000
-0.000000
-0.000000
-0.000000
-0.000000
-0.000000
-0.000000
-0.000000
-0.000000
-0.000000
-0.000000
-0.000000
-0.000000
-0.000000
-0.000000
-0.000000
0.000000
-0.000000
-0.000000
-0.000000
-0.000000
-0.000000
-0.000000
-0.000000
-0.000000
-0.000000
-0.000000
-0.000000
-0.000000
-0.000000
-0.000000
-0.000000
-0.000000
-0.000000
-0.000000
-0.000000
-0.000000
-0.000000
-0.000000
-0.000000
-0.000000
-0.000000
-0.000000
-0.000000
-0.000000
-0.000000
-0.000000
-0.000000
-0.000000
-0.000000
-0.000000
-0.000000
-0.000000
-0.000000
-0.000000
-0.000000
-0.000000
-0.000000
-0.000000
-0.000000
-0.000000
-0.000000
-0.000000
-0.000000
-0.000000
-0.000000
-0.000000
-0.000000
-0.000000
-0.000000
-0.000000
-0.000000
-0.000000
-0.000000
-0.000000
-0.000000
-0.000000
0.000000
-0.000000
-0.000000
-0.000000
-0.000000
-0.000000
-0.000000
-0.000000
-0.000000
-0.000000
-0.000000
-0.000000
-0.000000
-0.000000
-0.000000
-0.000000
-0.000000
-0.000000
-0.000000
-0.000000
-0.000000
-0.000000
-0.000000
-0.000000
-0.000000
-0.000000
-0.000000
-0.000000
-0.000000
-0.000000
-0.000000
-0.000000
-0.000000
-0.000000
-0.000000
-0.000000
-0.000000
-0.000000
-0.000000
-0.000000
-0.000000
-0.000000
-0.000000
-0.000000
-0.000000
-0.000000
-0.000000
-0.000000
-0.000000
-0.000000
-0.000000
-0.000000
-0.000000
-0.000000
-0.000000
-0.000000
-0.000000
-0.000000
-0.000000
-0.000000
-0.000000
-0.000000
-0.000000
-0.000000
-0.000000
-0.000000
-0.000000
-0.000000
-0.000000
-0.000000
-0.000000
-0.000000
-0.000000
-0.000000
-0.000000
-0.000000
-0.000000
-0.000000
-0.000000
-0.000000
-0.000000
-0.000000
-0.000000
-0.000000
-0.000000
-0.000000
-0.000000
-0.000000
-0.000000
-0.000000
-0.000000
-0.000000
-0.000000
-0.000000
-0.000000
-0.000000
-0.000000
-0.000000
-0.000000
-0.000000
-0.000000
-0.000000
-0.000000
-0.000000
-0.000000
-0.000000
-0.000000
-0.000000
-0.000000
-0.000000
-0.000000
-0.000000
-0.000000
-0.000000
-0.000000
-0.000000
-0.000000
-0.000000
-0.000000
-0.000000
-0.000000
-0.000000
-0.000000
-0.000000
-0.000000
-0.000000
-0.000000
-0.000000
-0.000000
-0.000000
0.000000
-0.000000
-0.000000
-0.000000
-0.000000
-0.000000
-0.000000
-0.000000
-0.000000
-0.000000
-0.000000
-0.000000
-0.000000
-0.000000
-0.000000
-0.000000
-0.000000
-0.000000
-0.000000
-0.000000
-0.000000
-0.000000
-0.000000
-0.000000
-0.000000
-0.000000
-0.000000
-0.000000
-0.000000
-0.000000
-0.000000
-0.000000
-0.000000
-0.000000
-0.000000
-0.000000
-0.000000
-0.000000
-0.000000
-0.000000
-0.000000
-0.000000
-0.000000
-0.000000
-0.000000
-0.000000
-0.000000
-0.000000
-0.000000
-0.000000
-0.000000
-0.000000
-0.000000
-0.000000
-0.000000
-0.000000
-0.000000
-0.000000
-0.000000
-0.000000
-0.000000
-0.000000
-0.000000
-0.000000
-0.000000
-0.000000
-0.000000
-0.000000
-0.000000
-0.000000
-0.000000
-0.000000
-0.000000
-0.000000
-0.000000
-0.000000
-0.000000
-0.000000
-0.000000
-0.000000
-0.000000
-0.000000
-0.000000
-0.000000
-0.000000
-0.000000
-0.000000
-0.000000
-0.000000
-0.000000
-0.000000
-0.000000
-0.000000
-0.000000
-0.000000
-0.000000
-0.000000
-0.000000
-0.000000
-0.000000
-0.000000
-0.000000
-0.000000
-0.000000
-0.000000
-0.000000
-0.000000
-0.000000
-0.000000
-0.000000
-0.000000
-0.000000
-0.000000
-0.000000
-0.000000
-0.000000
-0.000000
-0.000000
-0.000000
-0.000000
-0.000000
-0.000000
-0.000000
-0.000000
-0.000000
-0.000000
-0.000000
-0.000000
-0.000000
-0.000000
-0.000000
-0.000000
-0.000000
-0.000000
-0.000000
-0.000000
-0.000000
-0.000000
-0.000000
-0.000000
-0.000000
-0.000000
-0.000000
-0.000000
-0.000000
-0.000000
-0.000000
-0.000000
-0.000000
-0.000000
-0.000000
-0.000000
-0.000000
-0.000000
-0.000000
-0.000000
-0.000000
-0.000000
-0.000000
-0.000000
-0.000000
-0.000000
-0.000000
-0.000000
-0.000000
-0.000000
-0.000000
-0.000000
-0.000000
-0.000000
-0.000000
-0.000000
-0.000000
-0.000000
-0.000000
-0.000000
-0.000000
-0.000000
-0.000000
-0.000000
-0.000000
-0.000000
-0.000000
-0.000000
-0.000000
-0.000000
-0.000000
-0.000000
-0.000000
-0.000000
-0.000000
-0.000000
-0.000000
-0.000000
-0.000000
-0.000000
-0.000000
-0.000000
-0.000000
-0.000000
-0.000000
-0.000000
-0.000000
-0.000000
-0.000000
-0.000000
-0.000000
-0.000000
-0.000000
-0.000000
-0.000000
-0.000000
-0.000000
-0.000000
-0.000000
-0.000000
-0.000000
-0.000000
-0.000000
-0.000000
-0.000000
-0.000000
-0.000000
-0.000000
-0.000000
-0.000000
-0.000000
-0.000000
-0.000000
-0.000000
-0.000000
-0.000000
-0.000000
-0.000000
-0.000000
-0.000000
-0.000000
-0.000000
-0.000000
-0.000000
-0.000000
-0.000000
-0.000000
-0.000000
-0.000000
-0.000000
-0.000000
-0.000000
-0.000000
-0.000000
-0.000000
-0.000000
-0.000000
-0.000000
-0.000000
0.000000
-0.000000
-0.000000
-0.000000
-0.000000
-0.000000
-0.000000
-0.000000
-0.000000
-0.000000
-0.000000
-0.000000
-0.000000
-0.000000
-0.000000
-0.000000
-0.000000
-0.000000
-0.000000
-0.000000
-0.000000
-0.000000
-0.000000
-0.000000
-0.000000
-0.000000
-0.000000
-0.000000
-0.000000
0.000000
-0.000000
-0.000000
-0.000000
-0.000000
-0.000000
-0.000000
-0.000000
-0.000000
-0.000000
-0.000000
-0.000000
-0.000000
-0.000000
-0.000000
-0.000000
-0.000000
-0.000000
-0.000000
-0.000000
-0.000000
-0.000000
-0.000000
-0.000000
-0.000000
-0.000000
-0.000000
-0.000000
-0.000000
-0.000000
-0.000000
-0.000000
-0.000000
-0.000000
-0.000000
-0.000000
-0.000000
-0.000000
-0.000000
-0.000000
-0.000000
-0.000000
-0.000000
-0.000000
-0.000000
-0.000000
-0.000000
-0.000000
-0.000000
-0.000000
-0.000000
-0.000000
-0.000000
-0.000000
-0.000000
-0.000000
-0.000000
-0.000000
-0.000000
-0.000000
-0.000000
-0.000000
-0.000000
-0.000000
-0.000000
-0.000000
-0.000000
-0.000000
-0.000000
-0.000000
-0.000000
-0.000000
-0.000000
-0.000000
-0.000000
-0.000000
-0.000000
-0.000000
-0.000000
-0.000000
-0.000000
-0.000000
-0.000000
-0.000000
-0.000000
-0.000000