# vtk DataFile Version 2.0
MATLAB generated vtk file, WMC
ASCII
DATASET UNSTRUCTURED_GRID
POINTS 576 double
0.130208 0.058459 0.000000 
0.130208 0.175378 0.000000 
0.130208 0.292297 0.000000 
0.390625 0.058459 0.000000 
0.390625 0.175378 0.000000 
0.390625 0.292297 0.000000 
0.651042 0.058459 0.000000 
0.651042 0.175378 0.000000 
0.651042 0.292297 0.000000 
0.130208 0.409339 0.000000 
0.130208 0.526774 0.000000 
0.130208 0.644547 0.000000 
0.390625 0.409339 0.000000 
0.390625 0.526774 0.000000 
0.390625 0.644547 0.000000 
0.651042 0.409339 0.000000 
0.651042 0.526774 0.000000 
0.651042 0.644547 0.000000 
0.130208 0.762658 0.000000 
0.130208 0.881120 0.000000 
0.130208 0.999791 0.000000 
0.390625 0.762658 0.000000 
0.390625 0.881120 0.000000 
0.390625 0.999791 0.000000 
0.651042 0.762658 0.000000 
0.651042 0.881120 0.000000 
0.651042 0.999791 0.000000 
0.130208 1.118689 0.000000 
0.130208 1.237895 0.000000 
0.130208 1.357392 0.000000 
0.390625 1.118689 0.000000 
0.390625 1.237895 0.000000 
0.390625 1.357392 0.000000 
0.651042 1.118689 0.000000 
0.651042 1.237895 0.000000 
0.651042 1.357392 0.000000 
0.130208 1.477211 0.000000 
0.130208 1.597376 0.000000 
0.130208 1.717788 0.000000 
0.390625 1.477211 0.000000 
0.390625 1.597376 0.000000 
0.390625 1.717788 0.000000 
0.651042 1.477211 0.000000 
0.651042 1.597376 0.000000 
0.651042 1.717788 0.000000 
0.130208 1.838465 0.000000 
0.130208 1.959428 0.000000 
0.130208 2.080684 0.000000 
0.390625 1.838465 0.000000 
0.390625 1.959428 0.000000 
0.390625 2.080684 0.000000 
0.651042 1.838465 0.000000 
0.651042 1.959428 0.000000 
0.651042 2.080684 0.000000 
0.130208 2.202261 0.000000 
0.130208 2.324177 0.000000 
0.130208 2.446393 0.000000 
0.390625 2.202261 0.000000 
0.390625 2.324177 0.000000 
0.390625 2.446393 0.000000 
0.651042 2.202261 0.000000 
0.651042 2.324177 0.000000 
0.651042 2.446393 0.000000 
0.130208 2.568889 0.000000 
0.130208 2.691685 0.000000 
0.130208 2.814794 0.000000 
0.390625 2.568889 0.000000 
0.390625 2.691685 0.000000 
0.390625 2.814794 0.000000 
0.651042 2.568889 0.000000 
0.651042 2.691685 0.000000 
0.651042 2.814794 0.000000 
0.130208 2.938213 0.000000 
0.130208 3.061995 0.000000 
0.130208 3.186055 0.000000 
0.390625 2.938213 0.000000 
0.390625 3.061995 0.000000 
0.390625 3.186055 0.000000 
0.651042 2.938213 0.000000 
0.651042 3.061995 0.000000 
0.651042 3.186055 0.000000 
0.130208 3.310444 0.000000 
0.130208 3.435173 0.000000 
0.130208 3.560168 0.000000 
0.390625 3.310444 0.000000 
0.390625 3.435173 0.000000 
0.390625 3.560168 0.000000 
0.651042 3.310444 0.000000 
0.651042 3.435173 0.000000 
0.651042 3.560168 0.000000 
0.130208 3.685532 0.000000 
0.130208 3.811231 0.000000 
0.130208 3.937253 0.000000 
0.390625 3.685532 0.000000 
0.390625 3.811231 0.000000 
0.390625 3.937253 0.000000 
0.651042 3.685532 0.000000 
0.651042 3.811231 0.000000 
0.651042 3.937253 0.000000 
0.130208 4.063614 0.000000 
0.130208 4.190323 0.000000 
0.130208 4.317290 0.000000 
0.390625 4.063614 0.000000 
0.390625 4.190323 0.000000 
0.390625 4.317290 0.000000 
0.651042 4.063614 0.000000 
0.651042 4.190323 0.000000 
0.651042 4.317290 0.000000 
0.130208 4.444654 0.000000 
0.130208 4.572369 0.000000 
0.130208 4.700423 0.000000 
0.390625 4.444654 0.000000 
0.390625 4.572369 0.000000 
0.390625 4.700423 0.000000 
0.651042 4.444654 0.000000 
0.651042 4.572369 0.000000 
0.651042 4.700423 0.000000 
0.130208 4.828848 0.000000 
0.130208 4.957591 0.000000 
0.130208 5.086633 0.000000 
0.390625 4.828848 0.000000 
0.390625 4.957591 0.000000 
0.390625 5.086633 0.000000 
0.651042 4.828848 0.000000 
0.651042 4.957591 0.000000 
0.651042 5.086633 0.000000 
0.130208 5.216065 0.000000 
0.130208 5.345894 0.000000 
0.130208 5.476081 0.000000 
0.390625 5.216065 0.000000 
0.390625 5.345894 0.000000 
0.390625 5.476081 0.000000 
0.651042 5.216065 0.000000 
0.651042 5.345894 0.000000 
0.651042 5.476081 0.000000 
0.130208 5.606599 0.000000 
0.130208 5.737547 0.000000 
0.130208 5.868747 0.000000 
0.390625 5.606599 0.000000 
0.390625 5.737547 0.000000 
0.390625 5.868747 0.000000 
0.651042 5.606599 0.000000 
0.651042 5.737547 0.000000 
0.651042 5.868747 0.000000 
0.130208 6.000335 0.000000 
0.130208 6.132366 0.000000 
0.130208 6.264781 0.000000 
0.390625 6.000335 0.000000 
0.390625 6.132366 0.000000 
0.390625 6.264781 0.000000 
0.651042 6.000335 0.000000 
0.651042 6.132366 0.000000 
0.651042 6.264781 0.000000 
0.130208 6.397498 0.000000 
0.130208 6.530639 0.000000 
0.130208 6.664126 0.000000 
0.390625 6.397498 0.000000 
0.390625 6.530639 0.000000 
0.390625 6.664126 0.000000 
0.651042 6.397498 0.000000 
0.651042 6.530639 0.000000 
0.651042 6.664126 0.000000 
0.130208 6.798057 0.000000 
0.130208 6.932314 0.000000 
0.130208 7.067041 0.000000 
0.390625 6.798057 0.000000 
0.390625 6.932314 0.000000 
0.390625 7.067041 0.000000 
0.651042 6.798057 0.000000 
0.651042 6.932314 0.000000 
0.651042 7.067041 0.000000 
0.130208 7.202105 0.000000 
0.130208 7.337508 0.000000 
0.130208 7.473361 0.000000 
0.390625 7.202105 0.000000 
0.390625 7.337508 0.000000 
0.390625 7.473361 0.000000 
0.651042 7.202105 0.000000 
0.651042 7.337508 0.000000 
0.651042 7.473361 0.000000 
0.130208 7.609662 0.000000 
0.130208 7.746348 0.000000 
0.130208 7.883432 0.000000 
0.390625 7.609662 0.000000 
0.390625 7.746348 0.000000 
0.390625 7.883432 0.000000 
0.651042 7.609662 0.000000 
0.651042 7.746348 0.000000 
0.651042 7.883432 0.000000 
0.130208 8.021021 0.000000 
0.130208 8.158927 0.000000 
0.130208 8.297245 0.000000 
0.390625 8.021021 0.000000 
0.390625 8.158927 0.000000 
0.390625 8.297245 0.000000 
0.651042 8.021021 0.000000 
0.651042 8.158927 0.000000 
0.651042 8.297245 0.000000 
0.130208 8.436066 0.000000 
0.130208 8.575345 0.000000 
0.130208 8.714896 0.000000 
0.390625 8.436066 0.000000 
0.390625 8.575345 0.000000 
0.390625 8.714896 0.000000 
0.651042 8.436066 0.000000 
0.651042 8.575345 0.000000 
0.651042 8.714896 0.000000 
0.130208 8.854904 0.000000 
0.130208 8.995431 0.000000 
0.130208 9.136332 0.000000 
0.390625 8.854904 0.000000 
0.390625 8.995431 0.000000 
0.390625 9.136332 0.000000 
0.651042 8.854904 0.000000 
0.651042 8.995431 0.000000 
0.651042 9.136332 0.000000 
0.130208 9.277727 0.000000 
0.130208 9.419607 0.000000 
0.130208 9.561941 0.000000 
0.390625 9.277727 0.000000 
0.390625 9.419607 0.000000 
0.390625 9.561941 0.000000 
0.651042 9.277727 0.000000 
0.651042 9.419607 0.000000 
0.651042 9.561941 0.000000 
0.130208 9.704642 0.000000 
0.130208 9.847837 0.000000 
0.130208 9.991508 0.000000 
0.390625 9.704642 0.000000 
0.390625 9.847837 0.000000 
0.390625 9.991508 0.000000 
0.651042 9.704642 0.000000 
0.651042 9.847837 0.000000 
0.651042 9.991508 0.000000 
0.130208 10.135705 0.000000 
0.130208 10.280294 0.000000 
0.130208 10.425276 0.000000 
0.390625 10.135705 0.000000 
0.390625 10.280294 0.000000 
0.390625 10.425276 0.000000 
0.651042 10.135705 0.000000 
0.651042 10.280294 0.000000 
0.651042 10.425276 0.000000 
0.130208 10.570886 0.000000 
0.130208 10.716858 0.000000 
0.130208 10.863376 0.000000 
0.390625 10.570886 0.000000 
0.390625 10.716858 0.000000 
0.390625 10.863376 0.000000 
0.651042 10.570886 0.000000 
0.651042 10.716858 0.000000 
0.651042 10.863376 0.000000 
0.130208 11.010452 0.000000 
0.130208 11.158039 0.000000 
0.130208 11.306044 0.000000 
0.390625 11.010452 0.000000 
0.390625 11.158039 0.000000 
0.390625 11.306044 0.000000 
0.651042 11.010452 0.000000 
0.651042 11.158039 0.000000 
0.651042 11.306044 0.000000 
0.130208 11.454541 0.000000 
0.130208 11.603650 0.000000 
0.130208 11.753190 0.000000 
0.390625 11.454541 0.000000 
0.390625 11.603650 0.000000 
0.390625 11.753190 0.000000 
0.651042 11.454541 0.000000 
0.651042 11.603650 0.000000 
0.651042 11.753190 0.000000 
0.130208 11.903239 0.000000 
0.130208 12.053828 0.000000 
0.130208 12.204978 0.000000 
0.390625 11.903239 0.000000 
0.390625 12.053828 0.000000 
0.390625 12.204978 0.000000 
0.651042 11.903239 0.000000 
0.651042 12.053828 0.000000 
0.651042 12.204978 0.000000 
0.130208 12.356631 0.000000 
0.130208 12.508871 0.000000 
0.130208 12.661549 0.000000 
0.390625 12.356631 0.000000 
0.390625 12.508871 0.000000 
0.390625 12.661549 0.000000 
0.651042 12.356631 0.000000 
0.651042 12.508871 0.000000 
0.651042 12.661549 0.000000 
0.130208 12.814915 0.000000 
0.130208 12.968804 0.000000 
0.130208 13.123121 0.000000 
0.390625 12.814915 0.000000 
0.390625 12.968804 0.000000 
0.390625 13.123121 0.000000 
0.651042 12.814915 0.000000 
0.651042 12.968804 0.000000 
0.651042 13.123121 0.000000 
0.130208 13.278171 0.000000 
0.130208 13.433800 0.000000 
0.130208 13.589951 0.000000 
0.390625 13.278171 0.000000 
0.390625 13.433800 0.000000 
0.390625 13.589951 0.000000 
0.651042 13.278171 0.000000 
0.651042 13.433800 0.000000 
0.651042 13.589951 0.000000 
0.130208 13.746612 0.000000 
0.130208 13.904127 0.000000 
0.130208 14.062037 0.000000 
0.390625 13.746612 0.000000 
0.390625 13.904127 0.000000 
0.390625 14.062037 0.000000 
0.651042 13.746612 0.000000 
0.651042 13.904127 0.000000 
0.651042 14.062037 0.000000 
0.130208 14.220338 0.000000 
0.130208 14.379459 0.000000 
0.130208 14.539216 0.000000 
0.390625 14.220338 0.000000 
0.390625 14.379459 0.000000 
0.390625 14.539216 0.000000 
0.651042 14.220338 0.000000 
0.651042 14.379459 0.000000 
0.651042 14.539216 0.000000 
0.130208 14.699608 0.000000 
0.130208 14.860589 0.000000 
0.130208 15.022260 0.000000 
0.390625 14.699608 0.000000 
0.390625 14.860589 0.000000 
0.390625 15.022260 0.000000 
0.651042 14.699608 0.000000 
0.651042 14.860589 0.000000 
0.651042 15.022260 0.000000 
0.130208 15.184550 0.000000 
0.130208 15.347362 0.000000 
0.130208 15.510881 0.000000 
0.390625 15.184550 0.000000 
0.390625 15.347362 0.000000 
0.390625 15.510881 0.000000 
0.651042 15.184550 0.000000 
0.651042 15.347362 0.000000 
0.651042 15.510881 0.000000 
0.130208 15.675121 0.000000 
0.130208 15.840088 0.000000 
0.130208 16.005602 0.000000 
0.390625 15.675121 0.000000 
0.390625 15.840088 0.000000 
0.390625 16.005602 0.000000 
0.651042 15.675121 0.000000 
0.651042 15.840088 0.000000 
0.651042 16.005602 0.000000 
0.130208 16.171763 0.000000 
0.130208 16.338781 0.000000 
0.130208 16.506465 0.000000 
0.390625 16.171763 0.000000 
0.390625 16.338781 0.000000 
0.390625 16.506465 0.000000 
0.651042 16.171763 0.000000 
0.651042 16.338781 0.000000 
0.651042 16.506465 0.000000 
0.130208 16.674714 0.000000 
0.130208 16.843697 0.000000 
0.130208 17.013605 0.000000 
0.390625 16.674714 0.000000 
0.390625 16.843697 0.000000 
0.390625 17.013605 0.000000 
0.651042 16.674714 0.000000 
0.651042 16.843697 0.000000 
0.651042 17.013605 0.000000 
0.130208 17.184036 0.000000 
0.130208 17.355125 0.000000 
0.130208 17.527219 0.000000 
0.390625 17.184036 0.000000 
0.390625 17.355125 0.000000 
0.390625 17.527219 0.000000 
0.651042 17.184036 0.000000 
0.651042 17.355125 0.000000 
0.651042 17.527219 0.000000 
0.130208 17.700123 0.000000 
0.130208 17.873503 0.000000 
0.130208 18.047748 0.000000 
0.390625 17.700123 0.000000 
0.390625 17.873503 0.000000 
0.390625 18.047748 0.000000 
0.651042 17.700123 0.000000 
0.651042 17.873503 0.000000 
0.651042 18.047748 0.000000 
0.130208 18.222887 0.000000 
0.130208 18.398716 0.000000 
0.130208 18.575311 0.000000 
0.390625 18.222887 0.000000 
0.390625 18.398716 0.000000 
0.390625 18.575311 0.000000 
0.651042 18.222887 0.000000 
0.651042 18.398716 0.000000 
0.651042 18.575311 0.000000 
0.130208 18.752820 0.000000 
0.130208 18.931289 0.000000 
0.130208 19.110336 0.000000 
0.390625 18.752820 0.000000 
0.390625 18.931289 0.000000 
0.390625 19.110336 0.000000 
0.651042 18.752820 0.000000 
0.651042 18.931289 0.000000 
0.651042 19.110336 0.000000 
0.130208 19.290330 0.000000 
0.130208 19.471167 0.000000 
0.130208 19.652930 0.000000 
0.390625 19.290330 0.000000 
0.390625 19.471167 0.000000 
0.390625 19.652930 0.000000 
0.651042 19.290330 0.000000 
0.651042 19.471167 0.000000 
0.651042 19.652930 0.000000 
0.130208 19.835583 0.000000 
0.130208 20.019005 0.000000 
0.130208 20.203545 0.000000 
0.390625 19.835583 0.000000 
0.390625 20.019005 0.000000 
0.390625 20.203545 0.000000 
0.651042 19.835583 0.000000 
0.651042 20.019005 0.000000 
0.651042 20.203545 0.000000 
0.130208 20.389031 0.000000 
0.130208 20.575172 0.000000 
0.130208 20.762254 0.000000 
0.390625 20.389031 0.000000 
0.390625 20.575172 0.000000 
0.390625 20.762254 0.000000 
0.651042 20.389031 0.000000 
0.651042 20.575172 0.000000 
0.651042 20.762254 0.000000 
0.130208 20.950617 0.000000 
0.130208 21.139798 0.000000 
0.130208 21.329582 0.000000 
0.390625 20.950617 0.000000 
0.390625 21.139798 0.000000 
0.390625 21.329582 0.000000 
0.651042 20.950617 0.000000 
0.651042 21.139798 0.000000 
0.651042 21.329582 0.000000 
0.130208 21.520824 0.000000 
0.130208 21.713003 0.000000 
0.130208 21.905815 0.000000 
0.390625 21.520824 0.000000 
0.390625 21.713003 0.000000 
0.390625 21.905815 0.000000 
0.651042 21.520824 0.000000 
0.651042 21.713003 0.000000 
0.651042 21.905815 0.000000 
0.130208 22.099879 0.000000 
0.130208 22.295348 0.000000 
0.130208 22.491456 0.000000 
0.390625 22.099879 0.000000 
0.390625 22.295348 0.000000 
0.390625 22.491456 0.000000 
0.651042 22.099879 0.000000 
0.651042 22.295348 0.000000 
0.651042 22.491456 0.000000 
0.130208 22.688741 0.000000 
0.130208 22.887415 0.000000 
0.130208 23.087025 0.000000 
0.390625 22.688741 0.000000 
0.390625 22.887415 0.000000 
0.390625 23.087025 0.000000 
0.651042 22.688741 0.000000 
0.651042 22.887415 0.000000 
0.651042 23.087025 0.000000 
0.130208 23.287655 0.000000 
0.130208 23.489586 0.000000 
0.130208 23.692818 0.000000 
0.390625 23.287655 0.000000 
0.390625 23.489586 0.000000 
0.390625 23.692818 0.000000 
0.651042 23.287655 0.000000 
0.651042 23.489586 0.000000 
0.651042 23.692818 0.000000 
0.130208 23.897057 0.000000 
0.130208 24.102555 0.000000 
0.130208 24.309312 0.000000 
0.390625 23.897057 0.000000 
0.390625 24.102555 0.000000 
0.390625 24.309312 0.000000 
0.651042 23.897057 0.000000 
0.651042 24.102555 0.000000 
0.651042 24.309312 0.000000 
0.130208 24.517265 0.000000 
0.130208 24.726646 0.000000 
0.130208 24.937169 0.000000 
0.390625 24.517265 0.000000 
0.390625 24.726646 0.000000 
0.390625 24.937169 0.000000 
0.651042 24.517265 0.000000 
0.651042 24.726646 0.000000 
0.651042 24.937169 0.000000 
0.130208 25.149225 0.000000 
0.130208 25.362510 0.000000 
0.130208 25.576843 0.000000 
0.390625 25.149225 0.000000 
0.390625 25.362510 0.000000 
0.390625 25.576843 0.000000 
0.651042 25.149225 0.000000 
0.651042 25.362510 0.000000 
0.651042 25.576843 0.000000 
0.130208 25.793068 0.000000 
0.130208 26.010750 0.000000 
0.130208 26.229602 0.000000 
0.390625 25.793068 0.000000 
0.390625 26.010750 0.000000 
0.390625 26.229602 0.000000 
0.651042 25.793068 0.000000 
0.651042 26.010750 0.000000 
0.651042 26.229602 0.000000 
0.130208 26.450184 0.000000 
0.130208 26.672296 0.000000 
0.130208 26.895420 0.000000 
0.390625 26.450184 0.000000 
0.390625 26.672296 0.000000 
0.390625 26.895420 0.000000 
0.651042 26.450184 0.000000 
0.651042 26.672296 0.000000 
0.651042 26.895420 0.000000 
0.130208 27.120366 0.000000 
0.130208 27.347413 0.000000 
0.130208 27.575718 0.000000 
0.390625 27.120366 0.000000 
0.390625 27.347413 0.000000 
0.390625 27.575718 0.000000 
0.651042 27.120366 0.000000 
0.651042 27.347413 0.000000 
0.651042 27.575718 0.000000 
0.130208 27.805612 0.000000 
0.130208 28.037692 0.000000 
0.130208 28.271192 0.000000 
0.390625 27.805612 0.000000 
0.390625 28.037692 0.000000 
0.390625 28.271192 0.000000 
0.651042 27.805612 0.000000 
0.651042 28.037692 0.000000 
0.651042 28.271192 0.000000 
0.130208 28.506206 0.000000 
0.130208 28.743536 0.000000 
0.130208 28.982483 0.000000 
0.390625 28.506206 0.000000 
0.390625 28.743536 0.000000 
0.390625 28.982483 0.000000 
0.651042 28.506206 0.000000 
0.651042 28.743536 0.000000 
0.651042 28.982483 0.000000 
0.130208 29.222890 0.000000 
0.130208 29.465910 0.000000 
0.130208 29.710957 0.000000 
0.390625 29.222890 0.000000 
0.390625 29.465910 0.000000 
0.390625 29.710957 0.000000 
0.651042 29.222890 0.000000 
0.651042 29.465910 0.000000 
0.651042 29.710957 0.000000 
0.130208 29.957496 0.000000 
0.130208 30.206544 0.000000 
0.130208 30.458036 0.000000 
0.390625 29.957496 0.000000 
0.390625 30.206544 0.000000 
0.390625 30.458036 0.000000 
0.651042 29.957496 0.000000 
0.651042 30.206544 0.000000 
0.651042 30.458036 0.000000 
0.130208 30.711050 0.000000 
0.130208 30.966711 0.000000 
0.130208 31.224570 0.000000 
0.390625 30.711050 0.000000 
0.390625 30.966711 0.000000 
0.390625 31.224570 0.000000 
0.651042 30.711050 0.000000 
0.651042 30.966711 0.000000 
0.651042 31.224570 0.000000 

POINT_DATA 576
SCALARS sigma_xx FLOAT 1
LOOKUP_TABLE default
0.000000
0.000000
0.000000
0.000000
0.000000
0.000000
0.000000
0.000000
0.000000
0.000000
0.000000
0.000000
0.000000
0.000000
0.000000
0.000000
0.000000
0.000000
0.000000
0.000000
-0.000000
0.000000
0.000000
-0.000000
0.000000
0.000000
-0.000000
-0.000000
-0.000000
-0.000000
-0.000000
-0.000000
0.000000
-0.000000
-0.000000
0.000000
-0.000000
-0.000000
-0.000000
-0.000000
-0.000000
0.000000
-0.000000
-0.000000
0.000000
-0.000000
-0.000000
-0.000000
-0.000000
-0.000000
-0.000000
-0.000000
-0.000000
-0.000000
-0.000000
-0.000000
-0.000000
-0.000000
-0.000000
-0.000000
-0.000000
-0.000000
-0.000000
-0.000000
-0.000000
-0.000000
-0.000000
-0.000000
-0.000000
-0.000000
-0.000000
-0.000000
-0.000000
-0.000000
-0.000000
-0.000000
-0.000000
-0.000000
-0.000000
-0.000000
-0.000000
0.000000
-0.000000
-0.000000
-0.000000
-0.000000
-0.000000
-0.000000
-0.000000
0.000000
-0.000000
-0.000000
-0.000000
-0.000000
-0.000000
0.000000
-0.000000
-0.000000
0.000000
0.000000
-0.000000
-0.000000
-0.000000
-0.000000
-0.000000
-0.000000
-0.000000
-0.000000
-0.000000
-0.000000
-0.000000
-0.000000
0.000000
-0.000000
0.000000
0.000000
-0.000000
0.000000
0.000000
-0.000000
0.000000
0.000000
-0.000000
0.000000
0.000000
-0.000000
-0.000000
-0.000000
-0.000000
-0.000000
-0.000000
-0.000000
-0.000000
-0.000000
-0.000000
-0.000000
0.000000
-0.000000
0.000000
-0.000000
-0.000000
0.000000
-0.000000
0.000000
-0.000000
0.000000
-0.000000
-0.000000
0.000000
-0.000000
-0.000000
0.000000
-0.000000
-0.000000
-0.000000
-0.000000
-0.000000
-0.000000
-0.000000
-0.000000
-0.000000
-0.000000
-0.000000
-0.000000
-0.000000
-0.000000
-0.000000
-0.000000
-0.000000
-0.000000
-0.000000
-0.000000
-0.000000
-0.000000
-0.000000
-0.000000
-0.000000
-0.000000
-0.000000
-0.000000
-0.000000
-0.000000
-0.000000
-0.000000
-0.000000
-0.000000
-0.000000
-0.000000
-0.000000
-0.000000
-0.000000
-0.000000
-0.000000
-0.000000
0.000000
-0.000000
-0.000000
0.000000
-0.000000
-0.000000
-0.000000
0.000000
-0.000000
-0.000000
-0.000000
-0.000000
-0.000000
0.000000
-0.000000
-0.000000
-0.000000
-0.000000
0.000000
-0.000000
-0.000000
0.000000
-0.000000
-0.000000
-0.000000
-0.000000
-0.000000
-0.000000
-0.000000
-0.000000
-0.000000
-0.000000
-0.000000
-0.000000
-0.000000
-0.000000
0.000000
-0.000000
0.000000
-0.000000
-0.000000
-0.000000
-0.000000
-0.000000
-0.000000
-0.000000
-0.000000
-0.000000
-0.000000
-0.000000
-0.000000
-0.000000
-0.000000
-0.000000
-0.000000
-0.000000
-0.000000
-0.000000
-0.000000
-0.000000
-0.000000
-0.000000
-0.000000
-0.000000
-0.000000
-0.000000
-0.000000
-0.000000
-0.000000
-0.000000
-0.000000
-0.000000
-0.000000
-0.000000
-0.000000
-0.000000
-0.000000
-0.000000
-0.000000
-0.000000
-0.000000
-0.000000
-0.000000
-0.000000
-0.000000
-0.000000
-0.000000
-0.000000
-0.000000
-0.000000
-0.000000
-0.000000
-0.000000
-0.000000
-0.000000
-0.000000
-0.000000
-0.000000
-0.000000
-0.000000
-0.000000
-0.000000
-0.000000
-0.000000
-0.000000
-0.000000
-0.000000
-0.000000
-0.000000
-0.000000
-0.000000
-0.000000
-0.000000
0.000000
-0.000000
-0.000000
-0.000000
-0.000000
-0.000000
-0.000000
-0.000000
-0.000000
-0.000000
-0.000000
-0.000000
-0.000000
-0.000000
-0.000000
-0.000000
-0.000000
-0.000000
-0.000000
-0.000000
-0.000000
-0.000000
-0.000000
-0.000000
-0.000000
-0.000000
-0.000000
-0.000000
-0.000000
-0.000000
-0.000000
-0.000000
-0.000000
-0.000000
-0.000000
-0.000000
-0.000000
-0.000000
-0.000000
-0.000000
-0.000000
0.000000
-0.000000
-0.000000
-0.000000
-0.000000
-0.000000
-0.000000
-0.000000
-0.000000
-0.000000
-0.000000
-0.000000
-0.000000
-0.000000
-0.000000
-0.000000
-0.000000
-0.000000
-0.000000
-0.000000
-0.000000
-0.000000
-0.000000
-0.000000
-0.000000
-0.000000
-0.000000
-0.000000
-0.000000
-0.000000
-0.000000
-0.000000
-0.000000
-0.000000
-0.000000
-0.000000
-0.000000
-0.000000
-0.000000
-0.000000
-0.000000
-0.000000
-0.000000
-0.000000
0.000000
-0.000000
-0.000000
0.000000
-0.000000
-0.000000
-0.000000
-0.000000
-0.000000
-0.000000
-0.000000
-0.000000
-0.000000
-0.000000
-0.000000
-0.000000
-0.000000
-0.000000
-0.000000
-0.000000
-0.000000
-0.000000
-0.000000
-0.000000
-0.000000
-0.000000
-0.000000
-0.000000
-0.000000
-0.000000
-0.000000
-0.000000
-0.000000
-0.000000
-0.000000
-0.000000
-0.000000
-0.000000
-0.000000
-0.000000
-0.000000
-0.000000
-0.000000
-0.000000
-0.000000
0.000000
-0.000000
-0.000000
0.000000
-0.000000
-0.000000
-0.000000
-0.000000
-0.000000
-0.000000
-0.000000
-0.000000
-0.000000
-0.000000
-0.000000
-0.000000
-0.000000
-0.000000
-0.000000
-0.000000
-0.000000
-0.000000
-0.000000
-0.000000
-0.000000
-0.000000
-0.000000
-0.000000
-0.000000
-0.000000
-0.000000
-0.000000
-0.000000
-0.000000
-0.000000
-0.000000
-0.000000
-0.000000
-0.000000
-0.000000
-0.000000
0.000000
-0.000000
-0.000000
-0.000000
-0.000000
-0.000000
-0.000000
-0.000000
-0.000000
-0.000000
-0.000000
-0.000000
-0.000000
-0.000000
-0.000000
-0.000000
-0.000000
-0.000000
-0.000000
-0.000000
-0.000000
-0.000000
-0.000000
-0.000000
-0.000000
-0.000000
-0.000000
-0.000000
-0.000000
-0.000000
-0.000000
-0.000000
-0.000000
-0.000000
-0.000000
-0.000000
-0.000000
-0.000000
-0.000000
0.000000
-0.000000
-0.000000
0.000000
-0.000000
-0.000000
-0.000000
-0.000000
-0.000000
-0.000000
-0.000000
-0.000000
-0.000000
-0.000000
-0.000000
0.000000
-0.000000
-0.000000
-0.000000
-0.000000
-0.000000
-0.000000
0.000000
-0.000000
0.000000
-0.000000
-0.000000
-0.000000
-0.000000
-0.000000
-0.000000
-0.000000
-0.000000
-0.000000
-0.000000
-0.000000
-0.000000
-0.000000
-0.000000
-0.000000
-0.000000
-0.000000
-0.000000
-0.000000
-0.000000
0.000000
-0.000000
-0.000000
0.000000
-0.000000
-0.000000
-0.000000
-0.000000
-0.000000
-0.000000
-0.000000
-0.000000
-0.000000
-0.000000

SCALARS sigma_yy FLOAT 1
LOOKUP_TABLE default
-17836.591020
-17836.591020
-17836.591020
-17836.591020
-17836.591020
-17836.591020
-17836.591020
-17836.591020
-17836.591020
-17727.517676
-17597.744979
-17500.866802
-17727.517676
-17597.744979
-17500.866802
-17727.517676
-17597.744979
-17500.866802
-17359.591275
-17279.859611
-17218.452640
-17359.591275
-17279.859611
-17218.452640
-17359.591275
-17279.859611
-17218.452640
-17118.077580
-17020.800428
-16936.313776
-17118.077580
-17020.800428
-16936.313776
-17118.077580
-17020.800428
-16936.313776
-16808.662927
-16715.970385
-16650.926898
-16808.662927
-16715.970385
-16650.926898
-16808.662927
-16715.970385
-16650.926898
-16547.905671
-16456.995743
-16378.073842
-16547.905671
-16456.995743
-16378.073842
-16547.905671
-16456.995743
-16378.073842
-16255.192435
-16166.131440
-16086.064360
-16255.192435
-16166.131440
-16086.064360
-16255.192435
-16166.131440
-16086.064360
-15976.118522
-15900.376725
-15807.451056
-15976.118522
-15900.376725
-15807.451056
-15976.118522
-15900.376725
-15807.451056
-15695.609324
-15604.967087
-15518.935033
-15695.609324
-15604.967087
-15518.935033
-15695.609324
-15604.967087
-15518.935033
-15418.092003
-15326.911211
-15250.281585
-15418.092003
-15326.911211
-15250.281585
-15418.092003
-15326.911211
-15250.281585
-15127.429081
-15046.448342
-14960.088023
-15127.429081
-15046.448342
-14960.088023
-15127.429081
-15046.448342
-14960.088023
-14840.327319
-14778.085212
-14686.542689
-14840.327319
-14778.085212
-14686.542689
-14840.327319
-14778.085212
-14686.542689
-14566.567910
-14478.675714
-14400.078752
-14566.567910
-14478.675714
-14400.078752
-14566.567910
-14478.675714
-14400.078752
-14270.434872
-14223.784276
-14123.303825
-14270.434872
-14223.784276
-14123.303825
-14270.434872
-14223.784276
-14123.303825
-14004.868755
-13911.512994
-13837.225247
-14004.868755
-13911.512994
-13837.225247
-14004.868755
-13911.512994
-13837.225247
-13712.102837
-13654.384711
-13556.605910
-13712.102837
-13654.384711
-13556.605910
-13712.102837
-13654.384711
-13556.605910
-13451.200837
-13341.264420
-13273.227535
-13451.200837
-13341.264420
-13273.227535
-13451.200837
-13341.264420
-13273.227535
-13177.120966
-13068.372237
-12992.032141
-13177.120966
-13068.372237
-12992.032141
-13177.120966
-13068.372237
-12992.032141
-12886.768325
-12791.806004
-12703.637727
-12886.768325
-12791.806004
-12703.637727
-12886.768325
-12791.806004
-12703.637727
-12617.071359
-12527.529198
-12429.425872
-12617.071359
-12527.529198
-12429.425872
-12617.071359
-12527.529198
-12429.425872
-12309.324725
-12242.941044
-12135.182871
-12309.324725
-12242.941044
-12135.182871
-12309.324725
-12242.941044
-12135.182871
-12030.312266
-11966.744114
-11867.025775
-12030.312266
-11966.744114
-11867.025775
-12030.312266
-11966.744114
-11867.025775
-11732.394816
-11681.640112
-11597.809403
-11732.394816
-11681.640112
-11597.809403
-11732.394816
-11681.640112
-11597.809403
-11477.348639
-11394.610279
-11303.737067
-11477.348639
-11394.610279
-11303.737067
-11477.348639
-11394.610279
-11303.737067
-11196.428992
-11089.046481
-11025.662056
-11196.428992
-11089.046481
-11025.662056
-11196.428992
-11089.046481
-11025.662056
-10924.033717
-10829.827082
-10731.267318
-10924.033717
-10829.827082
-10731.267318
-10924.033717
-10829.827082
-10731.267318
-10627.761852
-10565.390264
-10458.664918
-10627.761852
-10565.390264
-10458.664918
-10627.761852
-10565.390264
-10458.664918
-10355.954210
-10274.496693
-10185.630560
-10355.954210
-10274.496693
-10185.630560
-10355.954210
-10274.496693
-10185.630560
-10047.357308
-9987.801127
-9909.472903
-10047.357308
-9987.801127
-9909.472903
-10047.357308
-9987.801127
-9909.472903
-9780.738097
-9700.133748
-9619.877305
-9780.738097
-9700.133748
-9619.877305
-9780.738097
-9700.133748
-9619.877305
-9515.006113
-9418.502752
-9337.199187
-9515.006113
-9418.502752
-9337.199187
-9515.006113
-9418.502752
-9337.199187
-9232.105219
-9143.430424
-9055.640247
-9232.105219
-9143.430424
-9055.640247
-9232.105219
-9143.430424
-9055.640247
-8931.738546
-8873.865561
-8782.285458
-8931.738546
-8873.865561
-8782.285458
-8931.738546
-8873.865561
-8782.285458
-8641.470262
-8582.912340
-8492.524922
-8641.470262
-8582.912340
-8492.524922
-8641.470262
-8582.912340
-8492.524922
-8376.562572
-8270.940660
-8229.295575
-8376.562572
-8270.940660
-8229.295575
-8376.562572
-8270.940660
-8229.295575
-8126.754529
-8004.902203
-7925.332340
-8126.754529
-8004.902203
-7925.332340
-8126.754529
-8004.902203
-7925.332340
-7825.991827
-7729.130766
-7631.801921
-7825.991827
-7729.130766
-7631.801921
-7825.991827
-7729.130766
-7631.801921
-7554.199823
-7450.671368
-7376.549979
-7554.199823
-7450.671368
-7376.549979
-7554.199823
-7450.671368
-7376.549979
-7244.725740
-7167.716256
-7097.112229
-7244.725740
-7167.716256
-7097.112229
-7244.725740
-7167.716256
-7097.112229
-6977.272322
-6879.421072
-6799.282735
-6977.272322
-6879.421072
-6799.282735
-6977.272322
-6879.421072
-6799.282735
-6719.613395
-6597.060183
-6516.650749
-6719.613395
-6597.060183
-6516.650749
-6719.613395
-6597.060183
-6516.650749
-6433.832229
-6339.749767
-6212.221063
-6433.832229
-6339.749767
-6212.221063
-6433.832229
-6339.749767
-6212.221063
-6130.694657
-6066.332847
-5954.344920
-6130.694657
-6066.332847
-5954.344920
-6130.694657
-6066.332847
-5954.344920
-5851.604738
-5778.172543
-5678.994704
-5851.604738
-5778.172543
-5678.994704
-5851.604738
-5778.172543
-5678.994704
-5558.770839
-5486.612764
-5394.473726
-5558.770839
-5486.612764
-5394.473726
-5558.770839
-5486.612764
-5394.473726
-5300.614889
-5199.004034
-5107.056429
-5300.614889
-5199.004034
-5107.056429
-5300.614889
-5199.004034
-5107.056429
-5013.325249
-4922.353084
-4811.305956
-5013.325249
-4922.353084
-4811.305956
-5013.325249
-4922.353084
-4811.305956
-4723.744925
-4660.601230
-4541.476579
-4723.744925
-4660.601230
-4541.476579
-4723.744925
-4660.601230
-4541.476579
-4424.163907
-4381.212704
-4282.906014
-4424.163907
-4381.212704
-4282.906014
-4424.163907
-4381.212704
-4282.906014
-4139.780244
-4096.521463
-4011.927660
-4139.780244
-4096.521463
-4011.927660
-4139.780244
-4096.521463
-4011.927660
-3875.179222
-3788.189216
-3727.421780
-3875.179222
-3788.189216
-3727.421780
-3875.179222
-3788.189216
-3727.421780
-3603.856773
-3503.485624
-3433.372847
-3603.856773
-3503.485624
-3433.372847
-3603.856773
-3503.485624
-3433.372847
-3329.321576
-3225.998220
-3143.701529
-3329.321576
-3225.998220
-3143.701529
-3329.321576
-3225.998220
-3143.701529
-3046.072803
-2958.471761
-2857.838680
-3046.072803
-2958.471761
-2857.838680
-3046.072803
-2958.471761
-2857.838680
-2764.271734
-2674.728192
-2575.035664
-2764.271734
-2674.728192
-2575.035664
-2764.271734
-2674.728192
-2575.035664
-2480.742087
-2399.274054
-2310.445219
-2480.742087
-2399.274054
-2310.445219
-2480.742087
-2399.274054
-2310.445219
-2187.967485
-2103.212900
-2025.636627
-2187.967485
-2103.212900
-2025.636627
-2187.967485
-2103.212900
-2025.636627
-1905.097339
-1828.972078
-1763.556074
-1905.097339
-1828.972078
-1763.556074
-1905.097339
-1828.972078
-1763.556074
-1627.972491
-1526.636052
-1470.887470
-1627.972491
-1526.636052
-1470.887470
-1627.972491
-1526.636052
-1470.887470
-1351.204887
-1241.164564
-1192.294782
-1351.204887
-1241.164564
-1192.294782
-1351.204887
-1241.164564
-1192.294782
-1079.711427
-961.831011
-915.737319
-1079.711427
-961.831011
-915.737319
-1079.711427
-961.831011
-915.737319
-808.347058
-675.769757
-623.545576
-808.347058
-675.769757
-623.545576
-808.347058
-675.769757
-623.545576
-529.848284
-396.786060
-339.032104
-529.848284
-396.786060
-339.032104
-529.848284
-396.786060
-339.032104
-245.528802