# vtk DataFile Version 2.0
MATLAB generated vtk file, WMC
ASCII
DATASET UNSTRUCTURED_GRID
<<<<<<< Updated upstream
POINTS 2048 double
0.024414 0.012936 0.000000 
0.024414 0.038807 0.000000 
0.073242 0.012936 0.000000 
0.073242 0.038807 0.000000 
0.024414 0.064683 0.000000 
0.024414 0.090574 0.000000 
0.073242 0.064683 0.000000 
0.073242 0.090574 0.000000 
0.024414 0.116475 0.000000 
0.024414 0.142385 0.000000 
0.073242 0.116475 0.000000 
0.073242 0.142385 0.000000 
0.024414 0.168305 0.000000 
0.024414 0.194235 0.000000 
0.073242 0.168305 0.000000 
0.073242 0.194235 0.000000 
0.024414 0.220175 0.000000 
0.024414 0.246125 0.000000 
0.073242 0.220175 0.000000 
0.073242 0.246125 0.000000 
0.024414 0.272085 0.000000 
0.024414 0.298056 0.000000 
0.073242 0.272085 0.000000 
0.073242 0.298056 0.000000 
0.024414 0.324035 0.000000 
0.024414 0.350024 0.000000 
0.073242 0.324035 0.000000 
0.073242 0.350024 0.000000 
0.024414 0.376023 0.000000 
0.024414 0.402033 0.000000 
0.073242 0.376023 0.000000 
0.073242 0.402033 0.000000 
0.024414 0.428053 0.000000 
0.024414 0.454082 0.000000 
0.073242 0.428053 0.000000 
0.073242 0.454082 0.000000 
0.024414 0.480122 0.000000 
0.024414 0.506172 0.000000 
0.073242 0.480122 0.000000 
0.073242 0.506172 0.000000 
0.024414 0.532231 0.000000 
0.024414 0.558300 0.000000 
0.073242 0.532231 0.000000 
0.073242 0.558300 0.000000 
0.024414 0.584379 0.000000 
0.024414 0.610468 0.000000 
0.073242 0.584379 0.000000 
0.073242 0.610468 0.000000 
0.024414 0.636568 0.000000 
0.024414 0.662677 0.000000 
0.073242 0.636568 0.000000 
0.073242 0.662677 0.000000 
0.024414 0.688797 0.000000 
0.024414 0.714928 0.000000 
0.073242 0.688797 0.000000 
0.073242 0.714928 0.000000 
0.024414 0.741067 0.000000 
0.024414 0.767217 0.000000 
0.073242 0.741067 0.000000 
0.073242 0.767217 0.000000 
0.024414 0.793376 0.000000 
0.024414 0.819547 0.000000 
0.073242 0.793376 0.000000 
0.073242 0.819547 0.000000 
0.024414 0.845727 0.000000 
0.024414 0.871918 0.000000 
0.073242 0.845727 0.000000 
0.073242 0.871918 0.000000 
0.024414 0.898119 0.000000 
0.024414 0.924328 0.000000 
0.073242 0.898119 0.000000 
0.073242 0.924328 0.000000 
0.024414 0.950550 0.000000 
0.024414 0.976780 0.000000 
0.073242 0.950550 0.000000 
0.073242 0.976780 0.000000 
0.024414 1.003022 0.000000 
0.024414 1.029274 0.000000 
0.073242 1.003022 0.000000 
0.073242 1.029274 0.000000 
0.024414 1.055536 0.000000 
0.024414 1.081809 0.000000 
0.073242 1.055536 0.000000 
0.073242 1.081809 0.000000 
0.024414 1.108089 0.000000 
0.024414 1.134381 0.000000 
0.073242 1.108089 0.000000 
0.073242 1.134381 0.000000 
0.024414 1.160684 0.000000 
0.024414 1.186996 0.000000 
0.073242 1.160684 0.000000 
0.073242 1.186996 0.000000 
0.024414 1.213321 0.000000 
0.024414 1.239654 0.000000 
0.073242 1.213321 0.000000 
0.073242 1.239654 0.000000 
0.024414 1.265998 0.000000 
0.024414 1.292352 0.000000 
0.073242 1.265998 0.000000 
0.073242 1.292352 0.000000 
0.024414 1.318715 0.000000 
0.024414 1.345091 0.000000 
0.073242 1.318715 0.000000 
0.073242 1.345091 0.000000 
0.024414 1.371475 0.000000 
0.024414 1.397871 0.000000 
0.073242 1.371475 0.000000 
0.073242 1.397871 0.000000 
0.024414 1.424277 0.000000 
0.024414 1.450693 0.000000 
0.073242 1.424277 0.000000 
0.073242 1.450693 0.000000 
0.024414 1.477119 0.000000 
0.024414 1.503557 0.000000 
0.073242 1.477119 0.000000 
0.073242 1.503557 0.000000 
0.024414 1.530003 0.000000 
0.024414 1.556461 0.000000 
0.073242 1.530003 0.000000 
0.073242 1.556461 0.000000 
0.024414 1.582930 0.000000 
0.024414 1.609407 0.000000 
0.073242 1.582930 0.000000 
0.073242 1.609407 0.000000 
0.024414 1.635898 0.000000 
0.024414 1.662397 0.000000 
0.073242 1.635898 0.000000 
0.073242 1.662397 0.000000 
0.024414 1.688907 0.000000 
0.024414 1.715427 0.000000 
0.073242 1.688907 0.000000 
0.073242 1.715427 0.000000 
0.024414 1.741959 0.000000 
0.024414 1.768498 0.000000 
0.073242 1.741959 0.000000 
0.073242 1.768498 0.000000 
0.024414 1.795050 0.000000 
0.024414 1.821612 0.000000 
0.073242 1.795050 0.000000 
0.073242 1.821612 0.000000 
0.024414 1.848184 0.000000 
0.024414 1.874770 0.000000 
0.073242 1.848184 0.000000 
0.073242 1.874770 0.000000 
0.024414 1.901364 0.000000 
0.024414 1.927968 0.000000 
0.073242 1.901364 0.000000 
0.073242 1.927968 0.000000 
0.024414 1.954583 0.000000 
0.024414 1.981209 0.000000 
0.073242 1.954583 0.000000 
0.073242 1.981209 0.000000 
0.024414 2.007844 0.000000 
0.024414 2.034490 0.000000 
0.073242 2.007844 0.000000 
0.073242 2.034490 0.000000 
0.024414 2.061149 0.000000 
0.024414 2.087818 0.000000 
0.073242 2.061149 0.000000 
0.073242 2.087818 0.000000 
0.024414 2.114496 0.000000 
0.024414 2.141188 0.000000 
0.073242 2.114496 0.000000 
0.073242 2.141188 0.000000 
0.024414 2.167886 0.000000 
0.024414 2.194597 0.000000 
0.073242 2.167886 0.000000 
0.073242 2.194597 0.000000 
0.024414 2.221319 0.000000 
0.024414 2.248051 0.000000 
0.073242 2.221319 0.000000 
0.073242 2.248051 0.000000 
0.024414 2.274794 0.000000 
0.024414 2.301548 0.000000 
0.073242 2.274794 0.000000 
0.073242 2.301548 0.000000 
0.024414 2.328314 0.000000 
0.024414 2.355088 0.000000 
0.073242 2.328314 0.000000 
0.073242 2.355088 0.000000 
0.024414 2.381874 0.000000 
0.024414 2.408671 0.000000 
0.073242 2.381874 0.000000 
0.073242 2.408671 0.000000 
0.024414 2.435477 0.000000 
0.024414 2.462295 0.000000 
0.073242 2.435477 0.000000 
0.073242 2.462295 0.000000 
0.024414 2.489126 0.000000 
0.024414 2.515965 0.000000 
0.073242 2.489126 0.000000 
0.073242 2.515965 0.000000 
0.024414 2.542814 0.000000 
0.024414 2.569677 0.000000 
0.073242 2.542814 0.000000 
0.073242 2.569677 0.000000 
0.024414 2.596548 0.000000 
0.024414 2.623432 0.000000 
0.073242 2.596548 0.000000 
0.073242 2.623432 0.000000 
0.024414 2.650325 0.000000 
0.024414 2.677232 0.000000 
0.073242 2.650325 0.000000 
0.073242 2.677232 0.000000 
0.024414 2.704148 0.000000 
0.024414 2.731073 0.000000 
0.073242 2.704148 0.000000 
0.073242 2.731073 0.000000 
0.024414 2.758012 0.000000 
0.024414 2.784960 0.000000 
0.073242 2.758012 0.000000 
0.073242 2.784960 0.000000 
0.024414 2.811918 0.000000 
0.024414 2.838889 0.000000 
0.073242 2.811918 0.000000 
0.073242 2.838889 0.000000 
0.024414 2.865871 0.000000 
0.024414 2.892863 0.000000 
0.073242 2.865871 0.000000 
0.073242 2.892863 0.000000 
0.024414 2.919866 0.000000 
0.024414 2.946881 0.000000 
0.073242 2.919866 0.000000 
0.073242 2.946881 0.000000 
0.024414 2.973906 0.000000 
0.024414 3.000942 0.000000 
0.073242 2.973906 0.000000 
0.073242 3.000942 0.000000 
0.024414 3.027989 0.000000 
0.024414 3.055048 0.000000 
0.073242 3.027989 0.000000 
0.073242 3.055048 0.000000 
0.024414 3.082119 0.000000 
0.024414 3.109198 0.000000 
0.073242 3.082119 0.000000 
0.073242 3.109198 0.000000 
0.024414 3.136292 0.000000 
0.024414 3.163393 0.000000 
0.073242 3.136292 0.000000 
0.073242 3.163393 0.000000 
0.024414 3.190505 0.000000 
0.024414 3.217631 0.000000 
0.073242 3.190505 0.000000 
0.073242 3.217631 0.000000 
0.024414 3.244766 0.000000 
0.024414 3.271915 0.000000 
0.073242 3.244766 0.000000 
0.073242 3.271915 0.000000 
0.024414 3.299073 0.000000 
0.024414 3.326243 0.000000 
0.073242 3.299073 0.000000 
0.073242 3.326243 0.000000 
0.024414 3.353423 0.000000 
0.024414 3.380615 0.000000 
0.073242 3.353423 0.000000 
0.073242 3.380615 0.000000 
0.024414 3.407818 0.000000 
0.024414 3.435034 0.000000 
0.073242 3.407818 0.000000 
0.073242 3.435034 0.000000 
0.024414 3.462259 0.000000 
0.024414 3.489495 0.000000 
0.073242 3.462259 0.000000 
0.073242 3.489495 0.000000 
0.024414 3.516744 0.000000 
0.024414 3.544003 0.000000 
0.073242 3.516744 0.000000 
0.073242 3.544003 0.000000 
0.024414 3.571273 0.000000 
0.024414 3.598555 0.000000 
0.073242 3.571273 0.000000 
0.073242 3.598555 0.000000 
0.024414 3.625849 0.000000 
0.024414 3.653151 0.000000 
0.073242 3.625849 0.000000 
0.073242 3.653151 0.000000 
0.024414 3.680468 0.000000 
0.024414 3.707795 0.000000 
0.073242 3.680468 0.000000 
0.073242 3.707795 0.000000 
0.024414 3.735133 0.000000 
0.024414 3.762484 0.000000 
0.073242 3.735133 0.000000 
0.073242 3.762484 0.000000 
0.024414 3.789844 0.000000 
0.024414 3.817217 0.000000 
0.073242 3.789844 0.000000 
0.073242 3.817217 0.000000 
0.024414 3.844602 0.000000 
0.024414 3.871996 0.000000 
0.073242 3.844602 0.000000 
0.073242 3.871996 0.000000 
0.024414 3.899404 0.000000 
0.024414 3.926822 0.000000 
0.073242 3.899404 0.000000 
0.073242 3.926822 0.000000 
0.024414 3.954252 0.000000 
0.024414 3.981692 0.000000 
0.073242 3.954252 0.000000 
0.073242 3.981692 0.000000 
0.024414 4.009144 0.000000 
0.024414 4.036610 0.000000 
0.073242 4.009144 0.000000 
0.073242 4.036610 0.000000 
0.024414 4.064083 0.000000 
0.024414 4.091572 0.000000 
0.073242 4.064083 0.000000 
0.073242 4.091572 0.000000 
0.024414 4.119071 0.000000 
0.024414 4.146582 0.000000 
0.073242 4.119071 0.000000 
0.073242 4.146582 0.000000 
0.024414 4.174104 0.000000 
0.024414 4.201636 0.000000 
0.073242 4.174104 0.000000 
0.073242 4.201636 0.000000 
0.024414 4.229179 0.000000 
0.024414 4.256736 0.000000 
0.073242 4.229179 0.000000 
0.073242 4.256736 0.000000 
0.024414 4.284305 0.000000 
0.024414 4.311883 0.000000 
0.073242 4.284305 0.000000 
0.073242 4.311883 0.000000 
0.024414 4.339475 0.000000 
0.024414 4.367078 0.000000 
0.073242 4.339475 0.000000 
0.073242 4.367078 0.000000 
0.024414 4.394692 0.000000 
0.024414 4.422319 0.000000 
0.073242 4.394692 0.000000 
0.073242 4.422319 0.000000 
0.024414 4.449957 0.000000 
0.024414 4.477606 0.000000 
0.073242 4.449957 0.000000 
0.073242 4.477606 0.000000 
0.024414 4.505268 0.000000 
0.024414 4.532941 0.000000 
0.073242 4.505268 0.000000 
0.073242 4.532941 0.000000 
0.024414 4.560626 0.000000 
0.024414 4.588321 0.000000 
0.073242 4.560626 0.000000 
0.073242 4.588321 0.000000 
0.024414 4.616030 0.000000 
0.024414 4.643750 0.000000 
0.073242 4.616030 0.000000 
0.073242 4.643750 0.000000 
0.024414 4.671480 0.000000 
0.024414 4.699225 0.000000 
0.073242 4.671480 0.000000 
0.073242 4.699225 0.000000 
[...]
POINT_DATA 2048
=======
POINTS 288 double
0.520833 0.283278 0.000000 
0.520833 0.849833 0.000000 
0.520833 1.416388 0.000000 
0.520833 1.982943 0.000000 
0.520833 2.549498 0.000000 
0.520833 3.116053 0.000000 
1.562500 0.283278 0.000000 
1.562500 0.849833 0.000000 
1.562500 1.416388 0.000000 
1.562500 1.982943 0.000000 
1.562500 2.549498 0.000000 
1.562500 3.116053 0.000000 
2.604167 0.283278 0.000000 
2.604167 0.849833 0.000000 
2.604167 1.416388 0.000000 
2.604167 1.982943 0.000000 
2.604167 2.549498 0.000000 
2.604167 3.116053 0.000000 
3.645833 0.283278 0.000000 
3.645833 0.849833 0.000000 
3.645833 1.416388 0.000000 
3.645833 1.982943 0.000000 
3.645833 2.549498 0.000000 
3.645833 3.116053 0.000000 
4.687500 0.283278 0.000000 
4.687500 0.849833 0.000000 
4.687500 1.416388 0.000000 
4.687500 1.982943 0.000000 
4.687500 2.549498 0.000000 
4.687500 3.116053 0.000000 
5.729167 0.283278 0.000000 
5.729167 0.849833 0.000000 
5.729167 1.416388 0.000000 
5.729167 1.982943 0.000000 
5.729167 2.549498 0.000000 
5.729167 3.116053 0.000000 
0.520833 3.686245 0.000000 
0.520833 4.266101 0.000000 
0.520833 4.854999 0.000000 
0.520833 5.452498 0.000000 
0.520833 6.057876 0.000000 
0.520833 6.667699 0.000000 
1.562500 3.686245 0.000000 
1.562500 4.266101 0.000000 
1.562500 4.854999 0.000000 
1.562500 5.452498 0.000000 
1.562500 6.057876 0.000000 
1.562500 6.667699 0.000000 
2.604167 3.686245 0.000000 
2.604167 4.266101 0.000000 
2.604167 4.854999 0.000000 
2.604167 5.452498 0.000000 
2.604167 6.057876 0.000000 
2.604167 6.667699 0.000000 
3.645833 3.686245 0.000000 
3.645833 4.266101 0.000000 
3.645833 4.854999 0.000000 
3.645833 5.452498 0.000000 
3.645833 6.057876 0.000000 
3.645833 6.667699 0.000000 
4.687500 3.686245 0.000000 
4.687500 4.266101 0.000000 
4.687500 4.854999 0.000000 
4.687500 5.452498 0.000000 
4.687500 6.057876 0.000000 
4.687500 6.667699 0.000000 
5.729167 3.686245 0.000000 
5.729167 4.266101 0.000000 
5.729167 4.854999 0.000000 
5.729167 5.452498 0.000000 
5.729167 6.057876 0.000000 
5.729167 6.667699 0.000000 
0.520833 7.281181 0.000000 
0.520833 7.900716 0.000000 
0.520833 8.526174 0.000000 
0.520833 9.157493 0.000000 
0.520833 9.794475 0.000000 
0.520833 10.436540 0.000000 
1.562500 7.281181 0.000000 
1.562500 7.900716 0.000000 
1.562500 8.526174 0.000000 
1.562500 9.157493 0.000000 
1.562500 9.794475 0.000000 
1.562500 10.436540 0.000000 
2.604167 7.281181 0.000000 
2.604167 7.900716 0.000000 
2.604167 8.526174 0.000000 
2.604167 9.157493 0.000000 
2.604167 9.794475 0.000000 
2.604167 10.436540 0.000000 
3.645833 7.281181 0.000000 
3.645833 7.900716 0.000000 
3.645833 8.526174 0.000000 
3.645833 9.157493 0.000000 
3.645833 9.794475 0.000000 
3.645833 10.436540 0.000000 
4.687500 7.281181 0.000000 
4.687500 7.900716 0.000000 
4.687500 8.526174 0.000000 
4.687500 9.157493 0.000000 
4.687500 9.794475 0.000000 
4.687500 10.436540 0.000000 
5.729167 7.281181 0.000000 
5.729167 7.900716 0.000000 
5.729167 8.526174 0.000000 
5.729167 9.157493 0.000000 
5.729167 9.794475 0.000000 
5.729167 10.436540 0.000000 
0.520833 11.086613 0.000000 
0.520833 11.746192 0.000000 
0.520833 12.415886 0.000000 
0.520833 13.092316 0.000000 
0.520833 13.773458 0.000000 
0.520833 14.459421 0.000000 
1.562500 11.086613 0.000000 
1.562500 11.746192 0.000000 
1.562500 12.415886 0.000000 
1.562500 13.092316 0.000000 
1.562500 13.773458 0.000000 
1.562500 14.459421 0.000000 
2.604167 11.086613 0.000000 
2.604167 11.746192 0.000000 
2.604167 12.415886 0.000000 
2.604167 13.092316 0.000000 
2.604167 13.773458 0.000000 
2.604167 14.459421 0.000000 
3.645833 11.086613 0.000000 
3.645833 11.746192 0.000000 
3.645833 12.415886 0.000000 
3.645833 13.092316 0.000000 
3.645833 13.773458 0.000000 
3.645833 14.459421 0.000000 
4.687500 11.086613 0.000000 
4.687500 11.746192 0.000000 
4.687500 12.415886 0.000000 
4.687500 13.092316 0.000000 
4.687500 13.773458 0.000000 
4.687500 14.459421 0.000000 
5.729167 11.086613 0.000000 
5.729167 11.746192 0.000000 
5.729167 12.415886 0.000000 
5.729167 13.092316 0.000000 
5.729167 13.773458 0.000000 
5.729167 14.459421 0.000000 
0.520833 15.153747 0.000000 
0.520833 15.857424 0.000000 
0.520833 16.571745 0.000000 
0.520833 17.295464 0.000000 
0.520833 18.029640 0.000000 
0.520833 18.773994 0.000000 
1.562500 15.153747 0.000000 
1.562500 15.857424 0.000000 
1.562500 16.571745 0.000000 
1.562500 17.295464 0.000000 
1.562500 18.029640 0.000000 
1.562500 18.773994 0.000000 
2.604167 15.153747 0.000000 
2.604167 15.857424 0.000000 
2.604167 16.571745 0.000000 
2.604167 17.295464 0.000000 
2.604167 18.029640 0.000000 
2.604167 18.773994 0.000000 
3.645833 15.153747 0.000000 
3.645833 15.857424 0.000000 
3.645833 16.571745 0.000000 
3.645833 17.295464 0.000000 
3.645833 18.029640 0.000000 
3.645833 18.773994 0.000000 
4.687500 15.153747 0.000000 
4.687500 15.857424 0.000000 
4.687500 16.571745 0.000000 
4.687500 17.295464 0.000000 
4.687500 18.029640 0.000000 
4.687500 18.773994 0.000000 
5.729167 15.153747 0.000000 
5.729167 15.857424 0.000000 
5.729167 16.571745 0.000000 
5.729167 17.295464 0.000000 
5.729167 18.029640 0.000000 
5.729167 18.773994 0.000000 
0.520833 19.528258 0.000000 
0.520833 20.292001 0.000000 
0.520833 21.065917 0.000000 
0.520833 21.849485 0.000000 
0.520833 22.645334 0.000000 
0.520833 23.451503 0.000000 
1.562500 19.528258 0.000000 
1.562500 20.292001 0.000000 
1.562500 21.065917 0.000000 
1.562500 21.849485 0.000000 
1.562500 22.645334 0.000000 
1.562500 23.451503 0.000000 
2.604167 19.528258 0.000000 
2.604167 20.292001 0.000000 
2.604167 21.065917 0.000000 
2.604167 21.849485 0.000000 
2.604167 22.645334 0.000000 
2.604167 23.451503 0.000000 
3.645833 19.528258 0.000000 
3.645833 20.292001 0.000000 
3.645833 21.065917 0.000000 
3.645833 21.849485 0.000000 
3.645833 22.645334 0.000000 
3.645833 23.451503 0.000000 
4.687500 19.528258 0.000000 
4.687500 20.292001 0.000000 
4.687500 21.065917 0.000000 
4.687500 21.849485 0.000000 
4.687500 22.645334 0.000000 
4.687500 23.451503 0.000000 
5.729167 19.528258 0.000000 
5.729167 20.292001 0.000000 
5.729167 21.065917 0.000000 
5.729167 21.849485 0.000000 
5.729167 22.645334 0.000000 
5.729167 23.451503 0.000000 
0.520833 24.274229 0.000000 
0.520833 25.114510 0.000000 
0.520833 25.966229 0.000000 
0.520833 26.830350 0.000000 
0.520833 27.707463 0.000000 
0.520833 28.597670 0.000000 
1.562500 24.274229 0.000000 
1.562500 25.114510 0.000000 
1.562500 25.966229 0.000000 
1.562500 26.830350 0.000000 
1.562500 27.707463 0.000000 
1.562500 28.597670 0.000000 
2.604167 24.274229 0.000000 
2.604167 25.114510 0.000000 
2.604167 25.966229 0.000000 
2.604167 26.830350 0.000000 
2.604167 27.707463 0.000000 
2.604167 28.597670 0.000000 
3.645833 24.274229 0.000000 
3.645833 25.114510 0.000000 
3.645833 25.966229 0.000000 
3.645833 26.830350 0.000000 
3.645833 27.707463 0.000000 
3.645833 28.597670 0.000000 
4.687500 24.274229 0.000000 
4.687500 25.114510 0.000000 
4.687500 25.966229 0.000000 
4.687500 26.830350 0.000000 
4.687500 27.707463 0.000000 
4.687500 28.597670 0.000000 
5.729167 24.274229 0.000000 
5.729167 25.114510 0.000000 
5.729167 25.966229 0.000000 
5.729167 26.830350 0.000000 
5.729167 27.707463 0.000000 
5.729167 28.597670 0.000000 
0.520833 29.509584 0.000000 
0.520833 30.445118 0.000000 
0.520833 31.402495 0.000000 
0.520833 32.378208 0.000000 
0.520833 33.368879 0.000000 
0.520833 34.377483 0.000000 
1.562500 29.509584 0.000000 
1.562500 30.445118 0.000000 
1.562500 31.402495 0.000000 
1.562500 32.378208 0.000000 
1.562500 33.368879 0.000000 
1.562500 34.377483 0.000000 
2.604167 29.509584 0.000000 
2.604167 30.445118 0.000000 
2.604167 31.402495 0.000000 
2.604167 32.378208 0.000000 
2.604167 33.368879 0.000000 
2.604167 34.377483 0.000000 
3.645833 29.509584 0.000000 
3.645833 30.445118 0.000000 
3.645833 31.402495 0.000000 
3.645833 32.378208 0.000000 
3.645833 33.368879 0.000000 
3.645833 34.377483 0.000000 
4.687500 29.509584 0.000000 
4.687500 30.445118 0.000000 
4.687500 31.402495 0.000000 
4.687500 32.378208 0.000000 
4.687500 33.368879 0.000000 
4.687500 34.377483 0.000000 
5.729167 29.509584 0.000000 
5.729167 30.445118 0.000000 
5.729167 31.402495 0.000000 
5.729167 32.378208 0.000000 
5.729167 33.368879 0.000000 
5.729167 34.377483 0.000000 

POINT_DATA 288
>>>>>>> Stashed changes
SCALARS sigma_xx FLOAT 1
LOOKUP_TABLE default
0.000000
0.000000
0.000000
0.000000
<<<<<<< Updated upstream
0.000000
=======
-0.000000
>>>>>>> Stashed changes
0.000000
0.000000
0.000000
0.000000
-0.000000
<<<<<<< Updated upstream
0.000000
=======
-0.000000
>>>>>>> Stashed changes
-0.000000
0.000000
0.000000
0.000000
0.000000
<<<<<<< Updated upstream
0.000000
0.000000
0.000000
0.000000
0.000000
0.000000
0.000000
0.000000
-0.000000
-0.000000
=======
-0.000000
-0.000000
0.000000
0.000000
0.000000
-0.000000
-0.000000
-0.000000
0.000000
0.000000
0.000000
>>>>>>> Stashed changes
-0.000000
-0.000000
-0.000000
0.000000
<<<<<<< Updated upstream
-0.000000
0.000000
-0.000000
=======
0.000000
>>>>>>> Stashed changes
0.000000
-0.000000
0.000000
-0.000000
<<<<<<< Updated upstream
-0.000000
0.000000
-0.000000
-0.000000
-0.000000
-0.000000
-0.000000
-0.000000
-0.000000
-0.000000
-0.000000
-0.000000
-0.000000
-0.000000
-0.000000
-0.000000
0.000000
-0.000000
0.000000
-0.000000
-0.000000
-0.000000
-0.000000
0.000000
-0.000000
0.000000
-0.000000
-0.000000
-0.000000
-0.000000
-0.000000
-0.000000
-0.000000
-0.000000
-0.000000
0.000000
-0.000000
0.000000
-0.000000
-0.000000
-0.000000
-0.000000
-0.000000
-0.000000
-0.000000
-0.000000
-0.000000
-0.000000
-0.000000
-0.000000
-0.000000
-0.000000
-0.000000
-0.000000
-0.000000
=======
0.000000
0.000000
0.000000
0.000000
0.000000
0.000000
0.000000
>>>>>>> Stashed changes
0.000000
0.000000
0.000000
0.000000
-0.000000
0.000000
<<<<<<< Updated upstream
-0.000000
-0.000000
-0.000000
-0.000000
-0.000000
-0.000000
-0.000000
-0.000000
-0.000000
-0.000000
-0.000000
-0.000000
=======
0.000000
0.000000
0.000000
>>>>>>> Stashed changes
-0.000000
-0.000000
0.000000
0.000000
0.000000
0.000000
<<<<<<< Updated upstream
-0.000000
-0.000000
-0.000000
-0.000000
-0.000000
0.000000
-0.000000
0.000000
-0.000000
-0.000000
-0.000000
-0.000000
-0.000000
-0.000000
-0.000000
-0.000000
0.000000
-0.000000
0.000000
-0.000000
-0.000000
=======
0.000000
-0.000000
0.000000
0.000000
0.000000
0.000000
>>>>>>> Stashed changes
-0.000000
-0.000000
-0.000000
0.000000
0.000000
0.000000
0.000000
-0.000000
<<<<<<< Updated upstream
-0.000000
-0.000000
-0.000000
0.000000
-0.000000
0.000000
-0.000000
-0.000000
=======
0.000000
0.000000
>>>>>>> Stashed changes
0.000000
-0.000000
0.000000
0.000000
0.000000
0.000000
0.000000
0.000000
<<<<<<< Updated upstream
-0.000000
0.000000
-0.000000
-0.000000
0.000000
-0.000000
0.000000
0.000000
-0.000000
0.000000
-0.000000
0.000000
-0.000000
0.000000
-0.000000
-0.000000
-0.000000
-0.000000
-0.000000
-0.000000
-0.000000
-0.000000
-0.000000
-0.000000
-0.000000
-0.000000
-0.000000
-0.000000
-0.000000
-0.000000
-0.000000
-0.000000
-0.000000
-0.000000
-0.000000
-0.000000
-0.000000
-0.000000
-0.000000
-0.000000
-0.000000
-0.000000
-0.000000
-0.000000
-0.000000
-0.000000
-0.000000
-0.000000
-0.000000
-0.000000
0.000000
-0.000000
-0.000000
-0.000000
-0.000000
-0.000000
-0.000000
-0.000000
-0.000000
-0.000000
-0.000000
-0.000000
-0.000000
-0.000000
-0.000000
-0.000000
-0.000000
-0.000000
-0.000000
-0.000000
-0.000000
-0.000000
-0.000000
-0.000000
-0.000000
-0.000000
-0.000000
-0.000000
-0.000000
-0.000000
-0.000000
-0.000000
-0.000000
-0.000000
-0.000000
-0.000000
-0.000000
-0.000000
-0.000000
-0.000000
-0.000000
-0.000000
-0.000000
-0.000000
-0.000000
0.000000
-0.000000
-0.000000
-0.000000
=======
0.000000
0.000000
0.000000
0.000000
0.000000
0.000000
0.000000
0.000000
0.000000
0.000000
0.000000
0.000000
0.000000
0.000000
0.000000
0.000000
0.000000
0.000000
-0.000000
0.000000
-0.000000
0.000000
0.000000
0.000000
-0.000000
0.000000
>>>>>>> Stashed changes
-0.000000
-0.000000
-0.000000
-0.000000
-0.000000
-0.000000
<<<<<<< Updated upstream
-0.000000
-0.000000
-0.000000
-0.000000
-0.000000
-0.000000
-0.000000
-0.000000
-0.000000
-0.000000
-0.000000
-0.000000
-0.000000
-0.000000
-0.000000
-0.000000
-0.000000
-0.000000
-0.000000
-0.000000
-0.000000
-0.000000
-0.000000
-0.000000
-0.000000
-0.000000
-0.000000
-0.000000
-0.000000
-0.000000
-0.000000
-0.000000
-0.000000
-0.000000
-0.000000
-0.000000
-0.000000
-0.000000
-0.000000
-0.000000
=======
0.000000
>>>>>>> Stashed changes
-0.000000
-0.000000
0.000000
-0.000000
0.000000
-0.000000
-0.000000
-0.000000
-0.000000
-0.000000
<<<<<<< Updated upstream
-0.000000
-0.000000
-0.000000
-0.000000
-0.000000
-0.000000
-0.000000
-0.000000
-0.000000
=======
0.000000
0.000000
0.000000
-0.000000
0.000000
-0.000000
0.000000
-0.000000
0.000000
-0.000000
0.000000
-0.000000
0.000000
-0.000000
-0.000000
-0.000000
0.000000
-0.000000
0.000000
>>>>>>> Stashed changes
-0.000000
-0.000000
-0.000000
-0.000000
<<<<<<< Updated upstream
=======
0.000000
0.000000
-0.000000
0.000000
-0.000000
>>>>>>> Stashed changes
-0.000000
-0.000000
-0.000000
-0.000000
<<<<<<< Updated upstream
-0.000000
-0.000000
-0.000000
0.000000
-0.000000
-0.000000
-0.000000
-0.000000
-0.000000
-0.000000
-0.000000
-0.000000
-0.000000
-0.000000
-0.000000
-0.000000
-0.000000
-0.000000
-0.000000
-0.000000
-0.000000
-0.000000
-0.000000
-0.000000
0.000000
-0.000000
0.000000
-0.000000
-0.000000
-0.000000
-0.000000
-0.000000
-0.000000
-0.000000
-0.000000
-0.000000
-0.000000
-0.000000
-0.000000
-0.000000
0.000000
-0.000000
-0.000000
-0.000000
-0.000000
-0.000000
-0.000000
-0.000000
-0.000000
0.000000
-0.000000
-0.000000
-0.000000
-0.000000
-0.000000
-0.000000
0.000000
0.000000
-0.000000
-0.000000
-0.000000
-0.000000
-0.000000
-0.000000
-0.000000
-0.000000
-0.000000
-0.000000
-0.000000
-0.000000
-0.000000
0.000000
-0.000000
0.000000
-0.000000
-0.000000
-0.000000
-0.000000
-0.000000
-0.000000
-0.000000
-0.000000
-0.000000
-0.000000
-0.000000
-0.000000
-0.000000
0.000000
-0.000000
0.000000
-0.000000
-0.000000
-0.000000
-0.000000
-0.000000
-0.000000
-0.000000
-0.000000
-0.000000
-0.000000
-0.000000
-0.000000
-0.000000
-0.000000
-0.000000
-0.000000
-0.000000
-0.000000
-0.000000
-0.000000
-0.000000
0.000000
-0.000000
0.000000
-0.000000
-0.000000
-0.000000
-0.000000
0.000000
-0.000000
-0.000000
-0.000000
-0.000000
-0.000000
-0.000000
-0.000000
-0.000000
-0.000000
-0.000000
-0.000000
-0.000000
-0.000000
-0.000000
-0.000000
-0.000000
-0.000000
-0.000000
-0.000000
-0.000000
-0.000000
-0.000000
-0.000000
-0.000000
-0.000000
-0.000000
-0.000000
-0.000000
-0.000000
-0.000000
-0.000000
-0.000000
-0.000000
-0.000000
-0.000000
-0.000000
-0.000000
-0.000000
-0.000000
-0.000000
-0.000000
-0.000000
-0.000000
-0.000000
-0.000000
-0.000000
-0.000000
-0.000000
-0.000000
-0.000000
-0.000000
-0.000000
-0.000000
-0.000000
-0.000000
-0.000000
-0.000000
-0.000000
-0.000000
-0.000000
-0.000000
-0.000000
-0.000000
-0.000000
-0.000000
-0.000000
-0.000000
-0.000000
-0.000000
-0.000000
-0.000000
-0.000000
-0.000000
-0.000000
-0.000000
-0.000000
-0.000000
-0.000000
-0.000000
-0.000000
-0.000000
-0.000000
-0.000000
-0.000000
-0.000000
-0.000000
-0.000000
-0.000000
-0.000000
-0.000000
-0.000000
-0.000000
-0.000000
-0.000000
-0.000000
-0.000000
-0.000000
-0.000000
-0.000000
-0.000000
-0.000000
-0.000000
0.000000
-0.000000
-0.000000
-0.000000
-0.000000
-0.000000
-0.000000
-0.000000
-0.000000
-0.000000
-0.000000
-0.000000
-0.000000
-0.000000
-0.000000
-0.000000
-0.000000
-0.000000
-0.000000
-0.000000
-0.000000
-0.000000
-0.000000
-0.000000
-0.000000
-0.000000
-0.000000
-0.000000
-0.000000
-0.000000
-0.000000
-0.000000
-0.000000
0.000000
-0.000000
-0.000000
-0.000000
-0.000000
-0.000000
-0.000000
-0.000000
-0.000000
-0.000000
-0.000000
-0.000000
-0.000000
-0.000000
-0.000000
-0.000000
-0.000000
-0.000000
-0.000000
-0.000000
-0.000000
-0.000000
-0.000000
-0.000000
-0.000000
-0.000000
-0.000000
-0.000000
-0.000000
0.000000
0.000000
0.000000
0.000000
-0.000000
-0.000000
0.000000
-0.000000
-0.000000
-0.000000
-0.000000
-0.000000
-0.000000
-0.000000
-0.000000
-0.000000
-0.000000
-0.000000
-0.000000
-0.000000
-0.000000
-0.000000
-0.000000
-0.000000
-0.000000
-0.000000
-0.000000
-0.000000
-0.000000
-0.000000
-0.000000
-0.000000
-0.000000
-0.000000
-0.000000
-0.000000
-0.000000
-0.000000
-0.000000
-0.000000
-0.000000
-0.000000
-0.000000
-0.000000
-0.000000
-0.000000
-0.000000
-0.000000
-0.000000
-0.000000
-0.000000
-0.000000
-0.000000
-0.000000
-0.000000
-0.000000
-0.000000
-0.000000
-0.000000
-0.000000
0.000000
-0.000000
0.000000
-0.000000
-0.000000
-0.000000
-0.000000
-0.000000
-0.000000
-0.000000
-0.000000
-0.000000
-0.000000
-0.000000
-0.000000
-0.000000
-0.000000
-0.000000
-0.000000
-0.000000
-0.000000
-0.000000
-0.000000
-0.000000
-0.000000
0.000000
-0.000000
-0.000000
-0.000000
-0.000000
-0.000000
-0.000000
-0.000000
-0.000000
-0.000000
-0.000000
-0.000000
-0.000000
-0.000000
-0.000000
-0.000000
-0.000000
0.000000
-0.000000
-0.000000
-0.000000
-0.000000
-0.000000
-0.000000
-0.000000
-0.000000
-0.000000
-0.000000
-0.000000
-0.000000
-0.000000
0.000000
-0.000000
0.000000
-0.000000
-0.000000
-0.000000
-0.000000
-0.000000
-0.000000
-0.000000
-0.000000
-0.000000
-0.000000
-0.000000
-0.000000
-0.000000
-0.000000
-0.000000
-0.000000
-0.000000
-0.000000
-0.000000
-0.000000
-0.000000
-0.000000
-0.000000
-0.000000
-0.000000
-0.000000
-0.000000
-0.000000
-0.000000
-0.000000
-0.000000
-0.000000
-0.000000
-0.000000
-0.000000
-0.000000
-0.000000
-0.000000
-0.000000
-0.000000
-0.000000
-0.000000
-0.000000
-0.000000
-0.000000
-0.000000
-0.000000
-0.000000
-0.000000
-0.000000
-0.000000
-0.000000
-0.000000
-0.000000
-0.000000
-0.000000
-0.000000
-0.000000
-0.000000
-0.000000
-0.000000
-0.000000
-0.000000
-0.000000
-0.000000
-0.000000
-0.000000
-0.000000
-0.000000
-0.000000
-0.000000
-0.000000
-0.000000
-0.000000
-0.000000
-0.000000
-0.000000
-0.000000
-0.000000
-0.000000
-0.000000
-0.000000
-0.000000
-0.000000
-0.000000
-0.000000
-0.000000
-0.000000
-0.000000
-0.000000
-0.000000
-0.000000
-0.000000
-0.000000
0.000000
-0.000000
-0.000000
-0.000000
-0.000000
-0.000000
-0.000000
-0.000000
-0.000000
-0.000000
-0.000000
-0.000000
-0.000000
-0.000000
-0.000000
-0.000000
-0.000000
-0.000000
-0.000000
-0.000000
-0.000000
-0.000000
-0.000000
-0.000000
-0.000000
-0.000000
-0.000000
-0.000000
-0.000000
-0.000000
-0.000000
-0.000000
-0.000000
-0.000000
-0.000000
-0.000000
-0.000000
-0.000000
-0.000000
-0.000000
-0.000000
-0.000000
-0.000000
-0.000000
0.000000
-0.000000
0.000000
-0.000000
-0.000000
-0.000000
-0.000000
-0.000000
-0.000000
-0.000000
-0.000000
-0.000000
-0.000000
-0.000000
-0.000000
-0.000000
-0.000000
-0.000000
-0.000000
0.000000
-0.000000
0.000000
-0.000000
0.000000
-0.000000
0.000000
-0.000000
-0.000000
-0.000000
-0.000000
-0.000000
-0.000000
-0.000000
-0.000000
-0.000000
-0.000000
-0.000000
-0.000000
-0.000000
-0.000000
-0.000000
-0.000000
-0.000000
0.000000
0.000000
0.000000
0.000000
-0.000000
-0.000000
-0.000000
-0.000000
-0.000000
-0.000000
-0.000000
-0.000000
-0.000000
-0.000000
-0.000000
-0.000000
-0.000000
-0.000000
-0.000000
-0.000000
-0.000000
-0.000000
-0.000000
-0.000000
-0.000000
-0.000000
-0.000000
-0.000000
-0.000000
-0.000000
-0.000000
-0.000000
-0.000000
-0.000000
-0.000000
-0.000000
-0.000000
-0.000000
-0.000000
-0.000000
-0.000000
-0.000000
-0.000000
-0.000000
-0.000000
-0.000000
-0.000000
-0.000000
-0.000000
-0.000000
-0.000000
-0.000000
-0.000000
-0.000000
-0.000000
-0.000000
-0.000000
-0.000000
0.000000
-0.000000
-0.000000
-0.000000
-0.000000
-0.000000
-0.000000
-0.000000
-0.000000
-0.000000
-0.000000
-0.000000
-0.000000
-0.000000
-0.000000
-0.000000
-0.000000
-0.000000
-0.000000
-0.000000
-0.000000
-0.000000
-0.000000
-0.000000
-0.000000
-0.000000
-0.000000
-0.000000
-0.000000
-0.000000
-0.000000
-0.000000
-0.000000
-0.000000
-0.000000
-0.000000
-0.000000
-0.000000
-0.000000
-0.000000
-0.000000
-0.000000
-0.000000
-0.000000
-0.000000
-0.000000
-0.000000
-0.000000
-0.000000
-0.000000
-0.000000