# vtk DataFile Version 2.0
MATLAB generated vtk file, WMC
ASCII
DATASET UNSTRUCTURED_GRID
<<<<<<< Updated upstream
POINTS 2048 double
0.024414 0.018141 0.000000 
0.024414 0.054424 0.000000 
0.073242 0.018141 0.000000 
0.073242 0.054424 0.000000 
0.024414 0.090712 0.000000 
0.024414 0.127014 0.000000 
0.073242 0.090712 0.000000 
0.073242 0.127014 0.000000 
0.024414 0.163321 0.000000 
0.024414 0.199638 0.000000 
0.073242 0.163321 0.000000 
0.073242 0.199638 0.000000 
0.024414 0.235961 0.000000 
0.024414 0.272293 0.000000 
0.073242 0.235961 0.000000 
0.073242 0.272293 0.000000 
0.024414 0.308634 0.000000 
0.024414 0.344983 0.000000 
0.073242 0.308634 0.000000 
0.073242 0.344983 0.000000 
0.024414 0.381340 0.000000 
0.024414 0.417705 0.000000 
0.073242 0.381340 0.000000 
0.073242 0.417705 0.000000 
0.024414 0.454077 0.000000 
0.024414 0.490459 0.000000 
0.073242 0.454077 0.000000 
0.073242 0.490459 0.000000 
0.024414 0.526848 0.000000 
0.024414 0.563246 0.000000 
0.073242 0.526848 0.000000 
0.073242 0.563246 0.000000 
0.024414 0.599652 0.000000 
0.024414 0.636066 0.000000 
0.073242 0.599652 0.000000 
0.073242 0.636066 0.000000 
0.024414 0.672489 0.000000 
0.024414 0.708919 0.000000 
0.073242 0.672489 0.000000 
0.073242 0.708919 0.000000 
0.024414 0.745358 0.000000 
0.024414 0.781804 0.000000 
0.073242 0.745358 0.000000 
0.073242 0.781804 0.000000 
0.024414 0.818259 0.000000 
0.024414 0.854722 0.000000 
0.073242 0.818259 0.000000 
0.073242 0.854722 0.000000 
0.024414 0.891194 0.000000 
0.024414 0.927674 0.000000 
0.073242 0.891194 0.000000 
0.073242 0.927674 0.000000 
0.024414 0.964163 0.000000 
0.024414 1.000660 0.000000 
0.073242 0.964163 0.000000 
0.073242 1.000660 0.000000 
0.024414 1.037163 0.000000 
0.024414 1.073677 0.000000 
0.073242 1.037163 0.000000 
0.073242 1.073677 0.000000 
0.024414 1.110196 0.000000 
0.024414 1.146728 0.000000 
0.073242 1.110196 0.000000 
0.073242 1.146728 0.000000 
0.024414 1.183264 0.000000 
0.024414 1.219811 0.000000 
0.073242 1.183264 0.000000 
0.073242 1.219811 0.000000 
0.024414 1.256365 0.000000 
0.024414 1.292926 0.000000 
0.073242 1.256365 0.000000 
0.073242 1.292926 0.000000 
0.024414 1.329499 0.000000 
0.024414 1.366077 0.000000 
0.073242 1.329499 0.000000 
0.073242 1.366077 0.000000 
0.024414 1.402666 0.000000 
0.024414 1.439260 0.000000 
0.073242 1.402666 0.000000 
0.073242 1.439260 0.000000 
0.024414 1.475864 0.000000 
0.024414 1.512476 0.000000 
0.073242 1.475864 0.000000 
0.073242 1.512476 0.000000 
0.024414 1.549097 0.000000 
0.024414 1.585726 0.000000 
0.073242 1.549097 0.000000 
0.073242 1.585726 0.000000 
0.024414 1.622363 0.000000 
0.024414 1.659009 0.000000 
0.073242 1.622363 0.000000 
0.073242 1.659009 0.000000 
0.024414 1.695665 0.000000 
0.024414 1.732327 0.000000 
0.073242 1.695665 0.000000 
0.073242 1.732327 0.000000 
0.024414 1.768998 0.000000 
0.024414 1.805676 0.000000 
0.073242 1.768998 0.000000 
0.073242 1.805676 0.000000 
0.024414 1.842363 0.000000 
0.024414 1.879060 0.000000 
0.073242 1.842363 0.000000 
0.073242 1.879060 0.000000 
0.024414 1.915763 0.000000 
0.024414 1.952477 0.000000 
0.073242 1.915763 0.000000 
0.073242 1.952477 0.000000 
0.024414 1.989197 0.000000 
0.024414 2.025926 0.000000 
0.073242 1.989197 0.000000 
0.073242 2.025926 0.000000 
0.024414 2.062664 0.000000 
0.024414 2.099412 0.000000 
0.073242 2.062664 0.000000 
0.073242 2.099412 0.000000 
0.024414 2.136167 0.000000 
0.024414 2.172930 0.000000 
0.073242 2.136167 0.000000 
0.073242 2.172930 0.000000 
0.024414 2.209700 0.000000 
0.024414 2.246480 0.000000 
0.073242 2.209700 0.000000 
0.073242 2.246480 0.000000 
0.024414 2.283270 0.000000 
0.024414 2.320065 0.000000 
0.073242 2.283270 0.000000 
0.073242 2.320065 0.000000 
0.024414 2.356871 0.000000 
0.024414 2.393683 0.000000 
0.073242 2.356871 0.000000 
0.073242 2.393683 0.000000 
0.024414 2.430509 0.000000 
0.024414 2.467340 0.000000 
0.073242 2.430509 0.000000 
0.073242 2.467340 0.000000 
0.024414 2.504178 0.000000 
0.024414 2.541026 0.000000 
0.073242 2.504178 0.000000 
0.073242 2.541026 0.000000 
0.024414 2.577879 0.000000 
0.024414 2.614746 0.000000 
0.073242 2.577879 0.000000 
0.073242 2.614746 0.000000 
0.024414 2.651619 0.000000 
0.024414 2.688500 0.000000 
0.073242 2.651619 0.000000 
0.073242 2.688500 0.000000 
0.024414 2.725390 0.000000 
0.024414 2.762287 0.000000 
0.073242 2.725390 0.000000 
0.073242 2.762287 0.000000 
0.024414 2.799196 0.000000 
0.024414 2.836112 0.000000 
0.073242 2.799196 0.000000 
0.073242 2.836112 0.000000 
0.024414 2.873036 0.000000 
0.024414 2.909969 0.000000 
0.073242 2.873036 0.000000 
0.073242 2.909969 0.000000 
0.024414 2.946908 0.000000 
0.024414 2.983859 0.000000 
0.073242 2.946908 0.000000 
0.073242 2.983859 0.000000 
0.024414 3.020817 0.000000 
0.024414 3.057785 0.000000 
0.073242 3.020817 0.000000 
0.073242 3.057785 0.000000 
0.024414 3.094759 0.000000 
0.024414 3.131742 0.000000 
0.073242 3.094759 0.000000 
0.073242 3.131742 0.000000 
0.024414 3.168736 0.000000 
0.024414 3.205737 0.000000 
0.073242 3.168736 0.000000 
0.073242 3.205737 0.000000 
0.024414 3.242747 0.000000 
0.024414 3.279763 0.000000 
0.073242 3.242747 0.000000 
0.073242 3.279763 0.000000 
0.024414 3.316791 0.000000 
0.024414 3.353826 0.000000 
0.073242 3.316791 0.000000 
0.073242 3.353826 0.000000 
0.024414 3.390870 0.000000 
0.024414 3.427923 0.000000 
0.073242 3.390870 0.000000 
0.073242 3.427923 0.000000 
0.024414 3.464984 0.000000 
0.024414 3.502053 0.000000 
0.073242 3.464984 0.000000 
0.073242 3.502053 0.000000 
0.024414 3.539132 0.000000 
0.024414 3.576221 0.000000 
0.073242 3.539132 0.000000 
0.073242 3.576221 0.000000 
0.024414 3.613316 0.000000 
0.024414 3.650421 0.000000 
0.073242 3.613316 0.000000 
0.073242 3.650421 0.000000 
0.024414 3.687532 0.000000 
0.024414 3.724655 0.000000 
0.073242 3.687532 0.000000 
0.073242 3.724655 0.000000 
0.024414 3.761785 0.000000 
0.024414 3.798924 0.000000 
0.073242 3.761785 0.000000 
0.073242 3.798924 0.000000 
0.024414 3.836071 0.000000 
0.024414 3.873227 0.000000 
0.073242 3.836071 0.000000 
0.073242 3.873227 0.000000 
0.024414 3.910393 0.000000 
0.024414 3.947567 0.000000 
0.073242 3.910393 0.000000 
0.073242 3.947567 0.000000 
0.024414 3.984750 0.000000 
0.024414 4.021941 0.000000 
0.073242 3.984750 0.000000 
0.073242 4.021941 0.000000 
0.024414 4.059139 0.000000 
0.024414 4.096348 0.000000 
0.073242 4.059139 0.000000 
0.073242 4.096348 0.000000 
0.024414 4.133565 0.000000 
0.024414 4.170791 0.000000 
0.073242 4.133565 0.000000 
0.073242 4.170791 0.000000 
0.024414 4.208026 0.000000 
0.024414 4.245268 0.000000 
0.073242 4.208026 0.000000 
0.073242 4.245268 0.000000 
0.024414 4.282522 0.000000 
0.024414 4.319782 0.000000 
0.073242 4.282522 0.000000 
0.073242 4.319782 0.000000 
0.024414 4.357053 0.000000 
0.024414 4.394330 0.000000 
0.073242 4.357053 0.000000 
0.073242 4.394330 0.000000 
0.024414 4.431617 0.000000 
0.024414 4.468913 0.000000 
0.073242 4.431617 0.000000 
0.073242 4.468913 0.000000 
0.024414 4.506216 0.000000 
0.024414 4.543530 0.000000 
0.073242 4.506216 0.000000 
0.073242 4.543530 0.000000 
0.024414 4.580851 0.000000 
0.024414 4.618183 0.000000 
0.073242 4.580851 0.000000 
0.073242 4.618183 0.000000 
0.024414 4.655522 0.000000 
0.024414 4.692872 0.000000 
0.073242 4.655522 0.000000 
0.073242 4.692872 0.000000 
0.024414 4.730229 0.000000 
0.024414 4.767596 0.000000 
0.073242 4.730229 0.000000 
0.073242 4.767596 0.000000 
0.024414 4.804970 0.000000 
0.024414 4.842354 0.000000 
0.073242 4.804970 0.000000 
0.073242 4.842354 0.000000 
0.024414 4.879746 0.000000 
0.024414 4.917148 0.000000 
0.073242 4.879746 0.000000 
0.073242 4.917148 0.000000 
0.024414 4.954559 0.000000 
0.024414 4.991978 0.000000 
0.073242 4.954559 0.000000 
0.073242 4.991978 0.000000 
0.024414 5.029406 0.000000 
0.024414 5.066841 0.000000 
0.073242 5.029406 0.000000 
0.073242 5.066841 0.000000 
0.024414 5.104288 0.000000 
0.024414 5.141743 0.000000 
0.073242 5.104288 0.000000 
0.073242 5.141743 0.000000 
0.024414 5.179207 0.000000 
0.024414 5.216678 0.000000 
0.073242 5.179207 0.000000 
0.073242 5.216678 0.000000 
0.024414 5.254159 0.000000 
0.024414 5.291649 0.000000 
0.073242 5.254159 0.000000 
0.073242 5.291649 0.000000 
0.024414 5.329149 0.000000 
0.024414 5.366656 0.000000 
0.073242 5.329149 0.000000 
0.073242 5.366656 0.000000 
0.024414 5.404173 0.000000 
0.024414 5.441698 0.000000 
0.073242 5.404173 0.000000 
0.073242 5.441698 0.000000 
0.024414 5.479234 0.000000 
0.024414 5.516779 0.000000 
0.073242 5.479234 0.000000 
0.073242 5.516779 0.000000 
0.024414 5.554331 0.000000 
0.024414 5.591892 0.000000 
0.073242 5.554331 0.000000 
0.073242 5.591892 0.000000 
0.024414 5.629460 0.000000 
0.024414 5.667042 0.000000 
0.073242 5.629460 0.000000 
0.073242 5.667042 0.000000 
0.024414 5.704628 0.000000 
0.024414 5.742227 0.000000 
0.073242 5.704628 0.000000 
0.073242 5.742227 0.000000 
0.024414 5.779832 0.000000 
0.024414 5.817447 0.000000 
0.073242 5.779832 0.000000 
0.073242 5.817447 0.000000 
0.024414 5.855072 0.000000 
0.024414 5.892704 0.000000 
0.073242 5.855072 0.000000 
0.073242 5.892704 0.000000 
0.024414 5.930348 0.000000 
0.024414 5.967998 0.000000 
0.073242 5.930348 0.000000 
0.073242 5.967998 0.000000 
0.024414 6.005659 0.000000 
0.024414 6.043327 0.000000 
0.073242 6.005659 0.000000 
0.073242 6.043327 0.000000 
0.024414 6.081005 0.000000 
0.024414 6.118692 0.000000 
0.073242 6.081005 0.000000 
0.073242 6.118692 0.000000 
0.024414 6.156389 0.000000 
0.024414 6.194093 0.000000 
0.073242 6.156389 0.000000 
0.073242 6.194093 0.000000 
0.024414 6.231808 0.000000 
0.024414 6.269531 0.000000 
0.073242 6.231808 0.000000 
0.073242 6.269531 0.000000 
0.024414 6.307265 0.000000 
0.024414 6.345007 0.000000 
0.073242 6.307265 0.000000 
0.073242 6.345007 0.000000 
0.024414 6.382758 0.000000 
0.024414 6.420517 0.000000 
0.073242 6.382758 0.000000 
0.073242 6.420517 0.000000 
0.024414 6.458284 0.000000 
0.024414 6.496061 0.000000 
0.073242 6.458284 0.000000 
0.073242 6.496061 0.000000 
[...]
POINT_DATA 2048
=======
POINTS 288 double
0.520833 0.392468 0.000000 
0.520833 1.177403 0.000000 
0.520833 1.962339 0.000000 
0.520833 2.747274 0.000000 
0.520833 3.532210 0.000000 
0.520833 4.317145 0.000000 
1.562500 0.392468 0.000000 
1.562500 1.177403 0.000000 
1.562500 1.962339 0.000000 
1.562500 2.747274 0.000000 
1.562500 3.532210 0.000000 
1.562500 4.317145 0.000000 
2.604167 0.392468 0.000000 
2.604167 1.177403 0.000000 
2.604167 1.962339 0.000000 
2.604167 2.747274 0.000000 
2.604167 3.532210 0.000000 
2.604167 4.317145 0.000000 
3.645833 0.392468 0.000000 
3.645833 1.177403 0.000000 
3.645833 1.962339 0.000000 
3.645833 2.747274 0.000000 
3.645833 3.532210 0.000000 
3.645833 4.317145 0.000000 
4.687500 0.392468 0.000000 
4.687500 1.177403 0.000000 
4.687500 1.962339 0.000000 
4.687500 2.747274 0.000000 
4.687500 3.532210 0.000000 
4.687500 4.317145 0.000000 
5.729167 0.392468 0.000000 
5.729167 1.177403 0.000000 
5.729167 1.962339 0.000000 
5.729167 2.747274 0.000000 
5.729167 3.532210 0.000000 
5.729167 4.317145 0.000000 
0.520833 5.107120 0.000000 
0.520833 5.910468 0.000000 
0.520833 6.722276 0.000000 
0.520833 7.534774 0.000000 
0.520833 8.347272 0.000000 
0.520833 9.159770 0.000000 
1.562500 5.107120 0.000000 
1.562500 5.910468 0.000000 
1.562500 6.722276 0.000000 
1.562500 7.534774 0.000000 
1.562500 8.347272 0.000000 
1.562500 9.159770 0.000000 
2.604167 5.107120 0.000000 
2.604167 5.910468 0.000000 
2.604167 6.722276 0.000000 
2.604167 7.534774 0.000000 
2.604167 8.347272 0.000000 
2.604167 9.159770 0.000000 
3.645833 5.107120 0.000000 
3.645833 5.910468 0.000000 
3.645833 6.722276 0.000000 
3.645833 7.534774 0.000000 
3.645833 8.347272 0.000000 
3.645833 9.159770 0.000000 
4.687500 5.107120 0.000000 
4.687500 5.910468 0.000000 
4.687500 6.722276 0.000000 
4.687500 7.534774 0.000000 
4.687500 8.347272 0.000000 
4.687500 9.159770 0.000000 
5.729167 5.107120 0.000000 
5.729167 5.910468 0.000000 
5.729167 6.722276 0.000000 
5.729167 7.534774 0.000000 
5.729167 8.347272 0.000000 
5.729167 9.159770 0.000000 
0.520833 9.976718 0.000000 
0.520833 10.801726 0.000000 
0.520833 11.634621 0.000000 
0.520833 12.474660 0.000000 
0.520833 13.316390 0.000000 
0.520833 14.158120 0.000000 
1.562500 9.976718 0.000000 
1.562500 10.801726 0.000000 
1.562500 11.634621 0.000000 
1.562500 12.474660 0.000000 
1.562500 13.316390 0.000000 
1.562500 14.158120 0.000000 
2.604167 9.976718 0.000000 
2.604167 10.801726 0.000000 
2.604167 11.634621 0.000000 
2.604167 12.474660 0.000000 
2.604167 13.316390 0.000000 
2.604167 14.158120 0.000000 
3.645833 9.976718 0.000000 
3.645833 10.801726 0.000000 
3.645833 11.634621 0.000000 
3.645833 12.474660 0.000000 
3.645833 13.316390 0.000000 
3.645833 14.158120 0.000000 
4.687500 9.976718 0.000000 
4.687500 10.801726 0.000000 
4.687500 11.634621 0.000000 
4.687500 12.474660 0.000000 
4.687500 13.316390 0.000000 
4.687500 14.158120 0.000000 
5.729167 9.976718 0.000000 
5.729167 10.801726 0.000000 
5.729167 11.634621 0.000000 
5.729167 12.474660 0.000000 
5.729167 13.316390 0.000000 
5.729167 14.158120 0.000000 
0.520833 15.004560 0.000000 
0.520833 15.857387 0.000000 
0.520833 16.717063 0.000000 
0.520833 17.582977 0.000000 
0.520833 18.454829 0.000000 
0.520833 19.328665 0.000000 
1.562500 15.004560 0.000000 
1.562500 15.857387 0.000000 
1.562500 16.717063 0.000000 
1.562500 17.582977 0.000000 
1.562500 18.454829 0.000000 
1.562500 19.328665 0.000000 
2.604167 15.004560 0.000000 
2.604167 15.857387 0.000000 
2.604167 16.717063 0.000000 
2.604167 17.582977 0.000000 
2.604167 18.454829 0.000000 
2.604167 19.328665 0.000000 
3.645833 15.004560 0.000000 
3.645833 15.857387 0.000000 
3.645833 16.717063 0.000000 
3.645833 17.582977 0.000000 
3.645833 18.454829 0.000000 
3.645833 19.328665 0.000000 
4.687500 15.004560 0.000000 
4.687500 15.857387 0.000000 
4.687500 16.717063 0.000000 
4.687500 17.582977 0.000000 
4.687500 18.454829 0.000000 
4.687500 19.328665 0.000000 
5.729167 15.004560 0.000000 
5.729167 15.857387 0.000000 
5.729167 16.717063 0.000000 
5.729167 17.582977 0.000000 
5.729167 18.454829 0.000000 
5.729167 19.328665 0.000000 
0.520833 20.207499 0.000000 
0.520833 21.091789 0.000000 
0.520833 21.982697 0.000000 
0.520833 22.878352 0.000000 
0.520833 23.780061 0.000000 
0.520833 24.688075 0.000000 
1.562500 20.207499 0.000000 
1.562500 21.091789 0.000000 
1.562500 21.982697 0.000000 
1.562500 22.878352 0.000000 
1.562500 23.780061 0.000000 
1.562500 24.688075 0.000000 
2.604167 20.207499 0.000000 
2.604167 21.091789 0.000000 
2.604167 21.982697 0.000000 
2.604167 22.878352 0.000000 
2.604167 23.780061 0.000000 
2.604167 24.688075 0.000000 
3.645833 20.207499 0.000000 
3.645833 21.091789 0.000000 
3.645833 21.982697 0.000000 
3.645833 22.878352 0.000000 
3.645833 23.780061 0.000000 
3.645833 24.688075 0.000000 
4.687500 20.207499 0.000000 
4.687500 21.091789 0.000000 
4.687500 21.982697 0.000000 
4.687500 22.878352 0.000000 
4.687500 23.780061 0.000000 
4.687500 24.688075 0.000000 
5.729167 20.207499 0.000000 
5.729167 21.091789 0.000000 
5.729167 21.982697 0.000000 
5.729167 22.878352 0.000000 
5.729167 23.780061 0.000000 
5.729167 24.688075 0.000000 
0.520833 25.602786 0.000000 
0.520833 26.522849 0.000000 
0.520833 27.448482 0.000000 
0.520833 28.378933 0.000000 
0.520833 29.316751 0.000000 
0.520833 30.259544 0.000000 
1.562500 25.602786 0.000000 
1.562500 26.522849 0.000000 
1.562500 27.448482 0.000000 
1.562500 28.378933 0.000000 
1.562500 29.316751 0.000000 
1.562500 30.259544 0.000000 
2.604167 25.602786 0.000000 
2.604167 26.522849 0.000000 
2.604167 27.448482 0.000000 
2.604167 28.378933 0.000000 
2.604167 29.316751 0.000000 
2.604167 30.259544 0.000000 
3.645833 25.602786 0.000000 
3.645833 26.522849 0.000000 
3.645833 27.448482 0.000000 
3.645833 28.378933 0.000000 
3.645833 29.316751 0.000000 
3.645833 30.259544 0.000000 
4.687500 25.602786 0.000000 
4.687500 26.522849 0.000000 
4.687500 27.448482 0.000000 
4.687500 28.378933 0.000000 
4.687500 29.316751 0.000000 
4.687500 30.259544 0.000000 
5.729167 25.602786 0.000000 
5.729167 26.522849 0.000000 
5.729167 27.448482 0.000000 
5.729167 28.378933 0.000000 
5.729167 29.316751 0.000000 
5.729167 30.259544 0.000000 
0.520833 31.213383 0.000000 
0.520833 32.173005 0.000000 
0.520833 33.137209 0.000000 
0.520833 34.107674 0.000000 
0.520833 35.084393 0.000000 
0.520833 36.066583 0.000000 
1.562500 31.213383 0.000000 
1.562500 32.173005 0.000000 
1.562500 33.137209 0.000000 
1.562500 34.107674 0.000000 
1.562500 35.084393 0.000000 
1.562500 36.066583 0.000000 
2.604167 31.213383 0.000000 
2.604167 32.173005 0.000000 
2.604167 33.137209 0.000000 
2.604167 34.107674 0.000000 
2.604167 35.084393 0.000000 
2.604167 36.066583 0.000000 
3.645833 31.213383 0.000000 
3.645833 32.173005 0.000000 
3.645833 33.137209 0.000000 
3.645833 34.107674 0.000000 
3.645833 35.084393 0.000000 
3.645833 36.066583 0.000000 
4.687500 31.213383 0.000000 
4.687500 32.173005 0.000000 
4.687500 33.137209 0.000000 
4.687500 34.107674 0.000000 
4.687500 35.084393 0.000000 
4.687500 36.066583 0.000000 
5.729167 31.213383 0.000000 
5.729167 32.173005 0.000000 
5.729167 33.137209 0.000000 
5.729167 34.107674 0.000000 
5.729167 35.084393 0.000000 
5.729167 36.066583 0.000000 
0.520833 37.062429 0.000000 
0.520833 38.065656 0.000000 
0.520833 39.073338 0.000000 
0.520833 40.089163 0.000000 
0.520833 41.110687 0.000000 
0.520833 42.140538 0.000000 
1.562500 37.062429 0.000000 
1.562500 38.065656 0.000000 
1.562500 39.073338 0.000000 
1.562500 40.089163 0.000000 
1.562500 41.110687 0.000000 
1.562500 42.140538 0.000000 
2.604167 37.062429 0.000000 
2.604167 38.065656 0.000000 
2.604167 39.073338 0.000000 
2.604167 40.089163 0.000000 
2.604167 41.110687 0.000000 
2.604167 42.140538 0.000000 
3.645833 37.062429 0.000000 
3.645833 38.065656 0.000000 
3.645833 39.073338 0.000000 
3.645833 40.089163 0.000000 
3.645833 41.110687 0.000000 
3.645833 42.140538 0.000000 
4.687500 37.062429 0.000000 
4.687500 38.065656 0.000000 
4.687500 39.073338 0.000000 
4.687500 40.089163 0.000000 
4.687500 41.110687 0.000000 
4.687500 42.140538 0.000000 
5.729167 37.062429 0.000000 
5.729167 38.065656 0.000000 
5.729167 39.073338 0.000000 
5.729167 40.089163 0.000000 
5.729167 41.110687 0.000000 
5.729167 42.140538 0.000000 

POINT_DATA 288
>>>>>>> Stashed changes
SCALARS sigma_xx FLOAT 1
LOOKUP_TABLE default
0.000000
0.000000
0.000000
0.000000
0.000000
0.000000
0.000000
0.000000
0.000000
<<<<<<< Updated upstream
-0.000000
0.000000
-0.000000
0.000000
0.000000
0.000000
0.000000
0.000000
-0.000000
0.000000
-0.000000
0.000000
0.000000
0.000000
0.000000
-0.000000
-0.000000
-0.000000
-0.000000
0.000000
0.000000
0.000000
0.000000
0.000000
0.000000
0.000000
0.000000
0.000000
0.000000
0.000000
0.000000
0.000000
0.000000
0.000000
0.000000
0.000000
0.000000
0.000000
0.000000
0.000000
0.000000
0.000000
0.000000
0.000000
0.000000
0.000000
0.000000
0.000000
0.000000
0.000000
0.000000
0.000000
0.000000
0.000000
0.000000
-0.000000
-0.000000
-0.000000
-0.000000
0.000000
0.000000
0.000000
0.000000
0.000000
-0.000000
0.000000
-0.000000
-0.000000
-0.000000
-0.000000
-0.000000
-0.000000
-0.000000
-0.000000
-0.000000
0.000000
0.000000
0.000000
0.000000
0.000000
0.000000
0.000000
0.000000
0.000000
-0.000000
0.000000
-0.000000
-0.000000
0.000000
-0.000000
0.000000
-0.000000
0.000000
-0.000000
0.000000
0.000000
-0.000000
0.000000
-0.000000
-0.000000
-0.000000
-0.000000
-0.000000
0.000000
0.000000
0.000000
0.000000
0.000000
0.000000
0.000000
0.000000
0.000000
-0.000000
0.000000
-0.000000
-0.000000
-0.000000
-0.000000
-0.000000
-0.000000
0.000000
-0.000000
0.000000
0.000000
-0.000000
0.000000
-0.000000
-0.000000
-0.000000
-0.000000
-0.000000
0.000000
0.000000
0.000000
0.000000
0.000000
0.000000
0.000000
0.000000
-0.000000
0.000000
-0.000000
0.000000
0.000000
0.000000
0.000000
0.000000
-0.000000
0.000000
-0.000000
0.000000
0.000000
0.000000
0.000000
0.000000
-0.000000
-0.000000
-0.000000
-0.000000
0.000000
0.000000
0.000000
0.000000
-0.000000
-0.000000
-0.000000
-0.000000
0.000000
-0.000000
0.000000
-0.000000
-0.000000
0.000000
-0.000000
0.000000
0.000000
0.000000
0.000000
0.000000
-0.000000
-0.000000
-0.000000
-0.000000
-0.000000
0.000000
-0.000000
0.000000
-0.000000
-0.000000
-0.000000
-0.000000
-0.000000
-0.000000
-0.000000
-0.000000
-0.000000
0.000000
-0.000000
0.000000
-0.000000
-0.000000
-0.000000
-0.000000
-0.000000
0.000000
-0.000000
0.000000
-0.000000
-0.000000
-0.000000
-0.000000
-0.000000
-0.000000
-0.000000
-0.000000
-0.000000
-0.000000
-0.000000
-0.000000
-0.000000
-0.000000
-0.000000
-0.000000
0.000000
-0.000000
0.000000
-0.000000
-0.000000
-0.000000
-0.000000
-0.000000
-0.000000
-0.000000
-0.000000
-0.000000
-0.000000
-0.000000
-0.000000
-0.000000
0.000000
-0.000000
0.000000
-0.000000
-0.000000
0.000000
-0.000000
0.000000
0.000000
-0.000000
0.000000
-0.000000
-0.000000
-0.000000
-0.000000
-0.000000
=======
0.000000
0.000000
0.000000
0.000000
0.000000
0.000000
0.000000
0.000000
0.000000
0.000000
0.000000
0.000000
0.000000
0.000000
0.000000
0.000000
0.000000
>>>>>>> Stashed changes
0.000000
0.000000
0.000000
0.000000
0.000000
<<<<<<< Updated upstream
-0.000000
0.000000
-0.000000
=======
0.000000
>>>>>>> Stashed changes
0.000000
0.000000
0.000000
0.000000
0.000000
0.000000
0.000000
0.000000
-0.000000
-0.000000
-0.000000
-0.000000
-0.000000
-0.000000
-0.000000
-0.000000
<<<<<<< Updated upstream
0.000000
0.000000
0.000000
0.000000
-0.000000
0.000000
-0.000000
0.000000
=======
-0.000000
>>>>>>> Stashed changes
-0.000000
-0.000000
-0.000000
-0.000000
-0.000000
<<<<<<< Updated upstream
0.000000
-0.000000
0.000000
0.000000
0.000000
0.000000
0.000000
0.000000
0.000000
0.000000
0.000000
0.000000
0.000000
0.000000
0.000000
-0.000000
-0.000000
-0.000000
-0.000000
0.000000
-0.000000
0.000000
-0.000000
-0.000000
-0.000000
0.000000
-0.000000
-0.000000
0.000000
-0.000000
0.000000
-0.000000
-0.000000
-0.000000
-0.000000
0.000000
-0.000000
-0.000000
-0.000000
-0.000000
-0.000000
-0.000000
-0.000000
-0.000000
-0.000000
-0.000000
-0.000000
0.000000
-0.000000
0.000000
-0.000000
-0.000000
-0.000000
-0.000000
-0.000000
-0.000000
0.000000
-0.000000
0.000000
-0.000000
0.000000
-0.000000
0.000000
-0.000000
-0.000000
-0.000000
-0.000000
-0.000000
-0.000000
-0.000000
-0.000000
0.000000
-0.000000
0.000000
-0.000000
0.000000
-0.000000
0.000000
-0.000000
0.000000
-0.000000
0.000000
-0.000000
-0.000000
-0.000000
-0.000000
-0.000000
-0.000000
0.000000
-0.000000
0.000000
-0.000000
-0.000000
-0.000000
-0.000000
-0.000000
-0.000000
-0.000000
-0.000000
-0.000000
0.000000
-0.000000
-0.000000
-0.000000
0.000000
-0.000000
0.000000
-0.000000
-0.000000
-0.000000
-0.000000
-0.000000
0.000000
0.000000
0.000000
0.000000
-0.000000
-0.000000
-0.000000
-0.000000
-0.000000
-0.000000
-0.000000
-0.000000
0.000000
-0.000000
0.000000
-0.000000
-0.000000
-0.000000
-0.000000
-0.000000
-0.000000
-0.000000
-0.000000
-0.000000
0.000000
-0.000000
0.000000
0.000000
-0.000000
0.000000
-0.000000
0.000000
-0.000000
0.000000
-0.000000
0.000000
0.000000
0.000000
-0.000000
-0.000000
0.000000
-0.000000
-0.000000
-0.000000
0.000000
-0.000000
0.000000
0.000000
-0.000000
0.000000
-0.000000
-0.000000
0.000000
-0.000000
0.000000
-0.000000
-0.000000
-0.000000
-0.000000
-0.000000
-0.000000
-0.000000
-0.000000
0.000000
0.000000
0.000000
0.000000
0.000000
0.000000
0.000000
0.000000
0.000000
0.000000
0.000000
0.000000
0.000000
0.000000
0.000000
0.000000
0.000000
0.000000
0.000000
0.000000
0.000000
0.000000
0.000000
0.000000
0.000000
0.000000
0.000000
0.000000
0.000000
0.000000
0.000000
0.000000
-0.000000
0.000000
-0.000000
0.000000
-0.000000
-0.000000
-0.000000
-0.000000
-0.000000
-0.000000
-0.000000
-0.000000
0.000000
0.000000
0.000000
0.000000
0.000000
-0.000000
-0.000000
-0.000000
-0.000000
-0.000000
-0.000000
-0.000000
-0.000000
-0.000000
-0.000000
-0.000000
0.000000
-0.000000
0.000000
-0.000000
-0.000000
-0.000000
-0.000000
-0.000000
0.000000
-0.000000
0.000000
-0.000000
0.000000
0.000000
0.000000
0.000000
0.000000
0.000000
0.000000
0.000000
0.000000
0.000000
0.000000
0.000000
0.000000
-0.000000
0.000000
-0.000000
-0.000000
-0.000000
-0.000000
-0.000000
-0.000000
-0.000000
-0.000000
-0.000000
-0.000000
-0.000000
-0.000000
-0.000000
-0.000000
-0.000000
-0.000000
-0.000000
-0.000000
-0.000000
-0.000000
-0.000000
0.000000
0.000000
0.000000
0.000000
-0.000000
-0.000000
-0.000000
-0.000000
0.000000
0.000000
0.000000
0.000000
0.000000
-0.000000
0.000000
-0.000000
-0.000000
-0.000000
-0.000000
-0.000000
0.000000
0.000000
0.000000
0.000000
0.000000
-0.000000
0.000000
-0.000000
-0.000000
-0.000000
-0.000000
-0.000000
0.000000
0.000000
0.000000
0.000000
-0.000000
0.000000
-0.000000
0.000000
0.000000
-0.000000
0.000000
-0.000000
-0.000000
-0.000000
-0.000000
-0.000000
0.000000
-0.000000
0.000000
-0.000000
-0.000000
-0.000000
-0.000000
-0.000000
-0.000000
0.000000
-0.000000
0.000000
0.000000
0.000000
0.000000
0.000000
-0.000000
0.000000
-0.000000
0.000000
-0.000000
-0.000000
-0.000000
-0.000000
-0.000000
-0.000000
-0.000000
-0.000000
0.000000
-0.000000
0.000000
-0.000000
-0.000000
-0.000000
-0.000000
-0.000000
-0.000000
-0.000000
-0.000000
-0.000000
-0.000000
0.000000
-0.000000
0.000000
-0.000000
-0.000000
-0.000000
-0.000000
0.000000
-0.000000
0.000000
-0.000000
-0.000000
0.000000
-0.000000
0.000000
-0.000000
0.000000
-0.000000
0.000000
-0.000000
-0.000000
-0.000000
-0.000000
-0.000000
-0.000000
-0.000000
-0.000000
-0.000000
0.000000
0.000000
0.000000
0.000000
-0.000000
0.000000
-0.000000
0.000000
-0.000000
0.000000
-0.000000
-0.000000
-0.000000
-0.000000
-0.000000
-0.000000
-0.000000
-0.000000
-0.000000
-0.000000
0.000000
-0.000000
0.000000
0.000000
-0.000000
0.000000
-0.000000
-0.000000
-0.000000
-0.000000
-0.000000
0.000000
0.000000
0.000000
0.000000
0.000000
-0.000000
0.000000
-0.000000
-0.000000
-0.000000
-0.000000
-0.000000
-0.000000
-0.000000
-0.000000
-0.000000
-0.000000
-0.000000
-0.000000
-0.000000
-0.000000
-0.000000
-0.000000
-0.000000
-0.000000
-0.000000
-0.000000
-0.000000
-0.000000
-0.000000
-0.000000
-0.000000
-0.000000
-0.000000
-0.000000
-0.000000
-0.000000
-0.000000
-0.000000
-0.000000
0.000000
0.000000
0.000000
0.000000
-0.000000
-0.000000
-0.000000
-0.000000
-0.000000
-0.000000
-0.000000
-0.000000
-0.000000
-0.000000
-0.000000
-0.000000
-0.000000
0.000000
-0.000000
0.000000
0.000000
0.000000
0.000000
0.000000
0.000000
0.000000
0.000000
0.000000
0.000000
0.000000
0.000000
0.000000
0.000000
-0.000000
-0.000000
-0.000000
-0.000000
-0.000000
0.000000
-0.000000
0.000000
-0.000000
0.000000
-0.000000
-0.000000
0.000000
-0.000000
0.000000
0.000000
-0.000000
0.000000
-0.000000
-0.000000
-0.000000
-0.000000
-0.000000
0.000000
0.000000
0.000000
0.000000
-0.000000
-0.000000
-0.000000
-0.000000
-0.000000
0.000000
-0.000000
0.000000
-0.000000
-0.000000
-0.000000
-0.000000
-0.000000
-0.000000
-0.000000
-0.000000
-0.000000
-0.000000
-0.000000
-0.000000
0.000000
0.000000
0.000000
0.000000
-0.000000
0.000000
-0.000000
0.000000
0.000000
0.000000
0.000000
0.000000
-0.000000
-0.000000
-0.000000
-0.000000
0.000000
0.000000
0.000000
0.000000
-0.000000
-0.000000
-0.000000
-0.000000
-0.000000
-0.000000
-0.000000
-0.000000
-0.000000
0.000000
-0.000000
-0.000000
-0.000000
-0.000000
-0.000000
-0.000000
-0.000000
-0.000000
-0.000000
-0.000000
0.000000
0.000000
0.000000
0.000000
0.000000
-0.000000
0.000000
-0.000000
-0.000000
-0.000000
-0.000000
-0.000000
-0.000000
-0.000000
-0.000000
-0.000000
0.000000
0.000000
0.000000
0.000000
0.000000
-0.000000
0.000000
-0.000000
-0.000000
-0.000000
-0.000000
-0.000000
-0.000000
0.000000
-0.000000
0.000000
0.000000
-0.000000
0.000000
-0.000000
0.000000
0.000000
0.000000
0.000000
0.000000
0.000000
0.000000
0.000000
0.000000
0.000000
0.000000
0.000000
0.000000
-0.000000
0.000000
-0.000000
-0.000000
-0.000000
-0.000000
-0.000000
-0.000000
0.000000
-0.000000
0.000000
-0.000000
-0.000000
-0.000000
-0.000000
-0.000000
-0.000000
-0.000000
-0.000000
0.000000
-0.000000
0.000000
-0.000000
0.000000
-0.000000
0.000000
-0.000000
-0.000000
-0.000000
-0.000000
-0.000000
-0.000000
-0.000000
-0.000000
-0.000000
-0.000000
-0.000000
-0.000000
-0.000000
-0.000000
0.000000
-0.000000
0.000000
-0.000000
-0.000000
-0.000000
0.000000
-0.000000
-0.000000
-0.000000
-0.000000
-0.000000
-0.000000
-0.000000
-0.000000
-0.000000
-0.000000
-0.000000
-0.000000
-0.000000
-0.000000
-0.000000
-0.000000
-0.000000
-0.000000
-0.000000
-0.000000
-0.000000
-0.000000
-0.000000
-0.000000
-0.000000
-0.000000
-0.000000
-0.000000
-0.000000
0.000000
-0.000000
0.000000
0.000000
-0.000000
0.000000
-0.000000
-0.000000
-0.000000
-0.000000
-0.000000
-0.000000
-0.000000
-0.000000
-0.000000
-0.000000
-0.000000
-0.000000
-0.000000
-0.000000
-0.000000
-0.000000
-0.000000
-0.000000
-0.000000
-0.000000
0.000000
0.000000
-0.000000
0.000000
-0.000000
0.000000
0.000000
0.000000
0.000000
0.000000
0.000000
0.000000
0.000000
-0.000000
-0.000000
-0.000000
-0.000000
-0.000000
-0.000000
-0.000000
-0.000000
-0.000000
-0.000000
-0.000000
-0.000000
0.000000
-0.000000
0.000000
-0.000000
-0.000000
0.000000
-0.000000
0.000000
-0.000000
-0.000000
-0.000000
-0.000000
-0.000000
-0.000000
-0.000000
-0.000000
-0.000000
-0.000000
-0.000000
-0.000000
-0.000000
-0.000000
-0.000000
-0.000000
-0.000000
-0.000000
-0.000000
-0.000000
-0.000000
-0.000000
-0.000000
-0.000000
-0.000000
-0.000000
-0.000000
-0.000000
-0.000000
-0.000000
-0.000000
-0.000000
-0.000000
-0.000000
-0.000000
-0.000000
0.000000
0.000000
0.000000
0.000000
-0.000000
-0.000000
-0.000000
-0.000000
-0.000000
0.000000
-0.000000
0.000000
-0.000000
-0.000000
-0.000000
-0.000000
-0.000000
-0.000000
-0.000000
-0.000000
-0.000000
-0.000000
-0.000000
-0.000000
-0.000000
0.000000
-0.000000
0.000000
0.000000
0.000000
0.000000
0.000000
-0.000000
-0.000000
-0.000000
-0.000000
-0.000000
-0.000000
-0.000000
-0.000000
-0.000000
-0.000000
-0.000000
-0.000000
0.000000
0.000000
0.000000
0.000000
0.000000
0.000000
0.000000
0.000000
0.000000
-0.000000
0.000000
-0.000000
-0.000000