# vtk DataFile Version 2.0
MATLAB generated vtk file, WMC
ASCII
DATASET UNSTRUCTURED_GRID
<<<<<<< Updated upstream
POINTS 2048 double
0.024414 0.009017 0.000000 
0.024414 0.027052 0.000000 
0.073242 0.009017 0.000000 
0.073242 0.027052 0.000000 
0.024414 0.045089 0.000000 
0.024414 0.063137 0.000000 
0.073242 0.045089 0.000000 
0.073242 0.063137 0.000000 
0.024414 0.081194 0.000000 
0.024414 0.099263 0.000000 
0.073242 0.081194 0.000000 
0.073242 0.099263 0.000000 
0.024414 0.117340 0.000000 
0.024414 0.135425 0.000000 
0.073242 0.117340 0.000000 
0.073242 0.135425 0.000000 
0.024414 0.153518 0.000000 
0.024414 0.171621 0.000000 
0.073242 0.153518 0.000000 
0.073242 0.171621 0.000000 
0.024414 0.189733 0.000000 
0.024414 0.207854 0.000000 
0.073242 0.189733 0.000000 
0.073242 0.207854 0.000000 
0.024414 0.225984 0.000000 
0.024414 0.244122 0.000000 
0.073242 0.225984 0.000000 
0.073242 0.244122 0.000000 
0.024414 0.262270 0.000000 
0.024414 0.280427 0.000000 
0.073242 0.262270 0.000000 
0.073242 0.280427 0.000000 
0.024414 0.298593 0.000000 
0.024414 0.316767 0.000000 
0.073242 0.298593 0.000000 
0.073242 0.316767 0.000000 
0.024414 0.334951 0.000000 
0.024414 0.353143 0.000000 
0.073242 0.334951 0.000000 
0.073242 0.353143 0.000000 
0.024414 0.371344 0.000000 
0.024414 0.389554 0.000000 
0.073242 0.371344 0.000000 
0.073242 0.389554 0.000000 
0.024414 0.407774 0.000000 
0.024414 0.426003 0.000000 
0.073242 0.407774 0.000000 
0.073242 0.426003 0.000000 
0.024414 0.444240 0.000000 
0.024414 0.462486 0.000000 
0.073242 0.444240 0.000000 
0.073242 0.462486 0.000000 
0.024414 0.480741 0.000000 
0.024414 0.499007 0.000000 
0.073242 0.480741 0.000000 
0.073242 0.499007 0.000000 
0.024414 0.517280 0.000000 
0.024414 0.535563 0.000000 
0.073242 0.517280 0.000000 
0.073242 0.535563 0.000000 
0.024414 0.553855 0.000000 
0.024414 0.572156 0.000000 
0.073242 0.553855 0.000000 
0.073242 0.572156 0.000000 
0.024414 0.590466 0.000000 
0.024414 0.608786 0.000000 
0.073242 0.590466 0.000000 
0.073242 0.608786 0.000000 
0.024414 0.627115 0.000000 
0.024414 0.645452 0.000000 
0.073242 0.627115 0.000000 
0.073242 0.645452 0.000000 
0.024414 0.663800 0.000000 
0.024414 0.682155 0.000000 
0.073242 0.663800 0.000000 
0.073242 0.682155 0.000000 
0.024414 0.700521 0.000000 
0.024414 0.718896 0.000000 
0.073242 0.700521 0.000000 
0.073242 0.718896 0.000000 
0.024414 0.737279 0.000000 
0.024414 0.755673 0.000000 
0.073242 0.737279 0.000000 
0.073242 0.755673 0.000000 
0.024414 0.774075 0.000000 
0.024414 0.792486 0.000000 
0.073242 0.774075 0.000000 
0.073242 0.792486 0.000000 
0.024414 0.810908 0.000000 
0.024414 0.829337 0.000000 
0.073242 0.810908 0.000000 
0.073242 0.829337 0.000000 
0.024414 0.847776 0.000000 
0.024414 0.866224 0.000000 
0.073242 0.847776 0.000000 
0.073242 0.866224 0.000000 
0.024414 0.884682 0.000000 
0.024414 0.903150 0.000000 
0.073242 0.884682 0.000000 
0.073242 0.903150 0.000000 
0.024414 0.921626 0.000000 
0.024414 0.940113 0.000000 
0.073242 0.921626 0.000000 
0.073242 0.940113 0.000000 
0.024414 0.958608 0.000000 
0.024414 0.977112 0.000000 
0.073242 0.958608 0.000000 
0.073242 0.977112 0.000000 
0.024414 0.995627 0.000000 
0.024414 1.014151 0.000000 
0.073242 0.995627 0.000000 
0.073242 1.014151 0.000000 
0.024414 1.032683 0.000000 
0.024414 1.051226 0.000000 
0.073242 1.032683 0.000000 
0.073242 1.051226 0.000000 
0.024414 1.069778 0.000000 
0.024414 1.088339 0.000000 
0.073242 1.069778 0.000000 
0.073242 1.088339 0.000000 
0.024414 1.106910 0.000000 
0.024414 1.125490 0.000000 
0.073242 1.106910 0.000000 
0.073242 1.125490 0.000000 
0.024414 1.144080 0.000000 
0.024414 1.162679 0.000000 
0.073242 1.144080 0.000000 
0.073242 1.162679 0.000000 
0.024414 1.181288 0.000000 
0.024414 1.199906 0.000000 
0.073242 1.181288 0.000000 
0.073242 1.199906 0.000000 
0.024414 1.218535 0.000000 
0.024414 1.237172 0.000000 
0.073242 1.218535 0.000000 
0.073242 1.237172 0.000000 
0.024414 1.255819 0.000000 
0.024414 1.274475 0.000000 
0.073242 1.255819 0.000000 
0.073242 1.274475 0.000000 
0.024414 1.293141 0.000000 
0.024414 1.311817 0.000000 
0.073242 1.293141 0.000000 
0.073242 1.311817 0.000000 
0.024414 1.330502 0.000000 
0.024414 1.349196 0.000000 
0.073242 1.330502 0.000000 
0.073242 1.349196 0.000000 
0.024414 1.367900 0.000000 
0.024414 1.386615 0.000000 
0.073242 1.367900 0.000000 
0.073242 1.386615 0.000000 
0.024414 1.405339 0.000000 
0.024414 1.424072 0.000000 
0.073242 1.405339 0.000000 
0.073242 1.424072 0.000000 
0.024414 1.442815 0.000000 
0.024414 1.461569 0.000000 
0.073242 1.442815 0.000000 
0.073242 1.461569 0.000000 
0.024414 1.480331 0.000000 
0.024414 1.499103 0.000000 
0.073242 1.480331 0.000000 
0.073242 1.499103 0.000000 
0.024414 1.517885 0.000000 
0.024414 1.536677 0.000000 
0.073242 1.517885 0.000000 
0.073242 1.536677 0.000000 
0.024414 1.555478 0.000000 
0.024414 1.574289 0.000000 
0.073242 1.555478 0.000000 
0.073242 1.574289 0.000000 
0.024414 1.593110 0.000000 
0.024414 1.611941 0.000000 
0.073242 1.593110 0.000000 
0.073242 1.611941 0.000000 
0.024414 1.630782 0.000000 
0.024414 1.649632 0.000000 
0.073242 1.630782 0.000000 
0.073242 1.649632 0.000000 
0.024414 1.668494 0.000000 
0.024414 1.687364 0.000000 
0.073242 1.668494 0.000000 
0.073242 1.687364 0.000000 
0.024414 1.706244 0.000000 
0.024414 1.725133 0.000000 
0.073242 1.706244 0.000000 
0.073242 1.725133 0.000000 
0.024414 1.744034 0.000000 
0.024414 1.762943 0.000000 
0.073242 1.744034 0.000000 
0.073242 1.762943 0.000000 
0.024414 1.781863 0.000000 
0.024414 1.800793 0.000000 
0.073242 1.781863 0.000000 
0.073242 1.800793 0.000000 
0.024414 1.819732 0.000000 
0.024414 1.838682 0.000000 
0.073242 1.819732 0.000000 
0.073242 1.838682 0.000000 
0.024414 1.857640 0.000000 
0.024414 1.876611 0.000000 
0.073242 1.857640 0.000000 
0.073242 1.876611 0.000000 
0.024414 1.895590 0.000000 
0.024414 1.914579 0.000000 
0.073242 1.895590 0.000000 
0.073242 1.914579 0.000000 
0.024414 1.933580 0.000000 
0.024414 1.952589 0.000000 
0.073242 1.933580 0.000000 
0.073242 1.952589 0.000000 
0.024414 1.971608 0.000000 
0.024414 1.990637 0.000000 
0.073242 1.971608 0.000000 
0.073242 1.990637 0.000000 
0.024414 2.009678 0.000000 
0.024414 2.028727 0.000000 
0.073242 2.009678 0.000000 
0.073242 2.028727 0.000000 
0.024414 2.047786 0.000000 
0.024414 2.066857 0.000000 
0.073242 2.047786 0.000000 
0.073242 2.066857 0.000000 
0.024414 2.085938 0.000000 
0.024414 2.105028 0.000000 
0.073242 2.085938 0.000000 
0.073242 2.105028 0.000000 
0.024414 2.124128 0.000000 
0.024414 2.143239 0.000000 
0.073242 2.124128 0.000000 
0.073242 2.143239 0.000000 
0.024414 2.162360 0.000000 
0.024414 2.181489 0.000000 
0.073242 2.162360 0.000000 
0.073242 2.181489 0.000000 
0.024414 2.200631 0.000000 
0.024414 2.219782 0.000000 
0.073242 2.200631 0.000000 
0.073242 2.219782 0.000000 
0.024414 2.238944 0.000000 
0.024414 2.258116 0.000000 
0.073242 2.238944 0.000000 
0.073242 2.258116 0.000000 
0.024414 2.277299 0.000000 
0.024414 2.296492 0.000000 
0.073242 2.277299 0.000000 
0.073242 2.296492 0.000000 
0.024414 2.315693 0.000000 
0.024414 2.334907 0.000000 
0.073242 2.315693 0.000000 
0.073242 2.334907 0.000000 
0.024414 2.354130 0.000000 
0.024414 2.373364 0.000000 
0.073242 2.354130 0.000000 
0.073242 2.373364 0.000000 
0.024414 2.392608 0.000000 
0.024414 2.411863 0.000000 
0.073242 2.392608 0.000000 
0.073242 2.411863 0.000000 
0.024414 2.431128 0.000000 
0.024414 2.450403 0.000000 
0.073242 2.431128 0.000000 
0.073242 2.450403 0.000000 
0.024414 2.469688 0.000000 
0.024414 2.488984 0.000000 
0.073242 2.469688 0.000000 
0.073242 2.488984 0.000000 
0.024414 2.508291 0.000000 
0.024414 2.527607 0.000000 
0.073242 2.508291 0.000000 
0.073242 2.527607 0.000000 
0.024414 2.546935 0.000000 
0.024414 2.566272 0.000000 
0.073242 2.546935 0.000000 
0.073242 2.566272 0.000000 
0.024414 2.585621 0.000000 
0.024414 2.604979 0.000000 
0.073242 2.585621 0.000000 
0.073242 2.604979 0.000000 
0.024414 2.624348 0.000000 
0.024414 2.643730 0.000000 
0.073242 2.624348 0.000000 
0.073242 2.643730 0.000000 
0.024414 2.663120 0.000000 
0.024414 2.682520 0.000000 
0.073242 2.663120 0.000000 
0.073242 2.682520 0.000000 
0.024414 2.701933 0.000000 
0.024414 2.721355 0.000000 
0.073242 2.701933 0.000000 
0.073242 2.721355 0.000000 
0.024414 2.740787 0.000000 
0.024414 2.760230 0.000000 
0.073242 2.740787 0.000000 
0.073242 2.760230 0.000000 
0.024414 2.779684 0.000000 
0.024414 2.799149 0.000000 
0.073242 2.779684 0.000000 
0.073242 2.799149 0.000000 
0.024414 2.818623 0.000000 
0.024414 2.838109 0.000000 
0.073242 2.818623 0.000000 
0.073242 2.838109 0.000000 
0.024414 2.857605 0.000000 
0.024414 2.877114 0.000000 
0.073242 2.857605 0.000000 
0.073242 2.877114 0.000000 
0.024414 2.896632 0.000000 
0.024414 2.916161 0.000000 
0.073242 2.896632 0.000000 
0.073242 2.916161 0.000000 
0.024414 2.935702 0.000000 
0.024414 2.955252 0.000000 
0.073242 2.935702 0.000000 
0.073242 2.955252 0.000000 
0.024414 2.974812 0.000000 
0.024414 2.994385 0.000000 
0.073242 2.974812 0.000000 
0.073242 2.994385 0.000000 
0.024414 3.013968 0.000000 
0.024414 3.033561 0.000000 
0.073242 3.013968 0.000000 
0.073242 3.033561 0.000000 
0.024414 3.053167 0.000000 
0.024414 3.072780 0.000000 
0.073242 3.053167 0.000000 
0.073242 3.072780 0.000000 
0.024414 3.092407 0.000000 
0.024414 3.112046 0.000000 
0.073242 3.092407 0.000000 
0.073242 3.112046 0.000000 
0.024414 3.131693 0.000000 
0.024414 3.151351 0.000000 
0.073242 3.131693 0.000000 
0.073242 3.151351 0.000000 
0.024414 3.171022 0.000000 
0.024414 3.190703 0.000000 
0.073242 3.171022 0.000000 
0.073242 3.190703 0.000000 
0.024414 3.210395 0.000000 
0.024414 3.230096 0.000000 
0.073242 3.210395 0.000000 
0.073242 3.230096 0.000000 
0.024414 3.249811 0.000000 
0.024414 3.269536 0.000000 
0.073242 3.249811 0.000000 
0.073242 3.269536 0.000000 
0.024414 3.289270 0.000000 
0.024414 3.309017 0.000000 
0.073242 3.289270 0.000000 
0.073242 3.309017 0.000000 
[...]
POINT_DATA 2048
SCALARS sigma_xx FLOAT 1
LOOKUP_TABLE default
0.000000
-0.000000
0.000000
-0.000000
-0.000000
-0.000000
-0.000000
-0.000000
-0.000000
-0.000000
-0.000000
-0.000000
-0.000000
0.000000
-0.000000
0.000000
-0.000000
-0.000000
-0.000000
-0.000000
-0.000000
-0.000000
-0.000000
-0.000000
0.000000
-0.000000
0.000000
-0.000000
-0.000000
-0.000000
-0.000000
-0.000000
-0.000000
-0.000000
-0.000000
-0.000000
0.000000
-0.000000
-0.000000
-0.000000
-0.000000
0.000000
-0.000000
0.000000
-0.000000
-0.000000
-0.000000
-0.000000
-0.000000
-0.000000
-0.000000
-0.000000
-0.000000
-0.000000
-0.000000
-0.000000
-0.000000
-0.000000
-0.000000
-0.000000
0.000000
-0.000000
0.000000
-0.000000
-0.000000
-0.000000
-0.000000
-0.000000
-0.000000
-0.000000
-0.000000
-0.000000
-0.000000
-0.000000
-0.000000
-0.000000
-0.000000
0.000000
-0.000000
0.000000
-0.000000
-0.000000
-0.000000
-0.000000
-0.000000
-0.000000
-0.000000
-0.000000
-0.000000
-0.000000
-0.000000
-0.000000
-0.000000
0.000000
-0.000000
0.000000
-0.000000
-0.000000
-0.000000
-0.000000
-0.000000
-0.000000
-0.000000
-0.000000
-0.000000
-0.000000
-0.000000
-0.000000
-0.000000
-0.000000
-0.000000
-0.000000
-0.000000
0.000000
-0.000000
-0.000000
-0.000000
0.000000
-0.000000
0.000000
-0.000000
-0.000000
-0.000000
-0.000000
-0.000000
-0.000000
0.000000
-0.000000
-0.000000
-0.000000
-0.000000
-0.000000
-0.000000
-0.000000
-0.000000
-0.000000
-0.000000
0.000000
-0.000000
-0.000000
-0.000000
-0.000000
-0.000000
-0.000000
-0.000000
-0.000000
-0.000000
-0.000000
-0.000000
0.000000
-0.000000
0.000000
-0.000000
-0.000000
-0.000000
-0.000000
-0.000000
-0.000000
-0.000000
-0.000000
-0.000000
-0.000000
-0.000000
-0.000000
-0.000000
-0.000000
-0.000000
-0.000000
-0.000000
-0.000000
-0.000000
-0.000000
-0.000000
-0.000000
-0.000000
-0.000000
=======
POINTS 288 double
0.520833 0.200089 0.000000 
0.520833 0.600267 0.000000 
0.520833 1.000445 0.000000 
0.520833 1.400623 0.000000 
0.520833 1.800801 0.000000 
0.520833 2.200979 0.000000 
1.562500 0.200089 0.000000 
1.562500 0.600267 0.000000 
1.562500 1.000445 0.000000 
1.562500 1.400623 0.000000 
1.562500 1.800801 0.000000 
1.562500 2.200979 0.000000 
2.604167 0.200089 0.000000 
2.604167 0.600267 0.000000 
2.604167 1.000445 0.000000 
2.604167 1.400623 0.000000 
2.604167 1.800801 0.000000 
2.604167 2.200979 0.000000 
3.645833 0.200089 0.000000 
3.645833 0.600267 0.000000 
3.645833 1.000445 0.000000 
3.645833 1.400623 0.000000 
3.645833 1.800801 0.000000 
3.645833 2.200979 0.000000 
4.687500 0.200089 0.000000 
4.687500 0.600267 0.000000 
4.687500 1.000445 0.000000 
4.687500 1.400623 0.000000 
4.687500 1.800801 0.000000 
4.687500 2.200979 0.000000 
5.729167 0.200089 0.000000 
5.729167 0.600267 0.000000 
5.729167 1.000445 0.000000 
5.729167 1.400623 0.000000 
5.729167 1.800801 0.000000 
5.729167 2.200979 0.000000 
0.520833 2.603726 0.000000 
0.520833 3.013299 0.000000 
0.520833 3.429258 0.000000 
0.520833 3.851293 0.000000 
0.520833 4.278916 0.000000 
0.520833 4.711326 0.000000 
1.562500 2.603726 0.000000 
1.562500 3.013299 0.000000 
1.562500 3.429258 0.000000 
1.562500 3.851293 0.000000 
1.562500 4.278916 0.000000 
1.562500 4.711326 0.000000 
2.604167 2.603726 0.000000 
2.604167 3.013299 0.000000 
2.604167 3.429258 0.000000 
2.604167 3.851293 0.000000 
2.604167 4.278916 0.000000 
2.604167 4.711326 0.000000 
3.645833 2.603726 0.000000 
3.645833 3.013299 0.000000 
3.645833 3.429258 0.000000 
3.645833 3.851293 0.000000 
3.645833 4.278916 0.000000 
3.645833 4.711326 0.000000 
4.687500 2.603726 0.000000 
4.687500 3.013299 0.000000 
4.687500 3.429258 0.000000 
4.687500 3.851293 0.000000 
4.687500 4.278916 0.000000 
4.687500 4.711326 0.000000 
5.729167 2.603726 0.000000 
5.729167 3.013299 0.000000 
5.729167 3.429258 0.000000 
5.729167 3.851293 0.000000 
5.729167 4.278916 0.000000 
5.729167 4.711326 0.000000 
0.520833 5.150397 0.000000 
0.520833 5.598259 0.000000 
0.520833 6.054805 0.000000 
0.520833 6.518824 0.000000 
0.520833 6.987391 0.000000 
0.520833 7.459696 0.000000 
1.562500 5.150397 0.000000 
1.562500 5.598259 0.000000 
1.562500 6.054805 0.000000 
1.562500 6.518824 0.000000 
1.562500 6.987391 0.000000 
1.562500 7.459696 0.000000 
2.604167 5.150397 0.000000 
2.604167 5.598259 0.000000 
2.604167 6.054805 0.000000 
2.604167 6.518824 0.000000 
2.604167 6.987391 0.000000 
2.604167 7.459696 0.000000 
3.645833 5.150397 0.000000 
3.645833 5.598259 0.000000 
3.645833 6.054805 0.000000 
3.645833 6.518824 0.000000 
3.645833 6.987391 0.000000 
3.645833 7.459696 0.000000 
4.687500 5.150397 0.000000 
4.687500 5.598259 0.000000 
4.687500 6.054805 0.000000 
4.687500 6.518824 0.000000 
4.687500 6.987391 0.000000 
4.687500 7.459696 0.000000 
5.729167 5.150397 0.000000 
5.729167 5.598259 0.000000 
5.729167 6.054805 0.000000 
5.729167 6.518824 0.000000 
5.729167 6.987391 0.000000 
5.729167 7.459696 0.000000 
0.520833 7.937892 0.000000 
0.520833 8.423081 0.000000 
0.520833 8.915875 0.000000 
0.520833 9.416209 0.000000 
0.520833 9.923981 0.000000 
0.520833 10.439120 0.000000 
1.562500 7.937892 0.000000 
1.562500 8.423081 0.000000 
1.562500 8.915875 0.000000 
1.562500 9.416209 0.000000 
1.562500 9.923981 0.000000 
1.562500 10.439120 0.000000 
2.604167 7.937892 0.000000 
2.604167 8.423081 0.000000 
2.604167 8.915875 0.000000 
2.604167 9.416209 0.000000 
2.604167 9.923981 0.000000 
2.604167 10.439120 0.000000 
3.645833 7.937892 0.000000 
3.645833 8.423081 0.000000 
3.645833 8.915875 0.000000 
3.645833 9.416209 0.000000 
3.645833 9.923981 0.000000 
3.645833 10.439120 0.000000 
4.687500 7.937892 0.000000 
4.687500 8.423081 0.000000 
4.687500 8.915875 0.000000 
4.687500 9.416209 0.000000 
4.687500 9.923981 0.000000 
4.687500 10.439120 0.000000 
5.729167 7.937892 0.000000 
5.729167 8.423081 0.000000 
5.729167 8.915875 0.000000 
5.729167 9.416209 0.000000 
5.729167 9.923981 0.000000 
5.729167 10.439120 0.000000 
0.520833 10.963911 0.000000 
0.520833 11.499576 0.000000 
0.520833 12.047523 0.000000 
0.520833 12.606414 0.000000 
0.520833 13.174317 0.000000 
0.520833 13.750461 0.000000 
1.562500 10.963911 0.000000 
1.562500 11.499576 0.000000 
1.562500 12.047523 0.000000 
1.562500 12.606414 0.000000 
1.562500 13.174317 0.000000 
1.562500 13.750461 0.000000 
2.604167 10.963911 0.000000 
2.604167 11.499576 0.000000 
2.604167 12.047523 0.000000 
2.604167 12.606414 0.000000 
2.604167 13.174317 0.000000 
2.604167 13.750461 0.000000 
3.645833 10.963911 0.000000 
3.645833 11.499576 0.000000 
3.645833 12.047523 0.000000 
3.645833 12.606414 0.000000 
3.645833 13.174317 0.000000 
3.645833 13.750461 0.000000 
4.687500 10.963911 0.000000 
4.687500 11.499576 0.000000 
4.687500 12.047523 0.000000 
4.687500 12.606414 0.000000 
4.687500 13.174317 0.000000 
4.687500 13.750461 0.000000 
5.729167 10.963911 0.000000 
5.729167 11.499576 0.000000 
5.729167 12.047523 0.000000 
5.729167 12.606414 0.000000 
5.729167 13.174317 0.000000 
5.729167 13.750461 0.000000 
0.520833 14.337333 0.000000 
0.520833 14.936127 0.000000 
0.520833 15.547846 0.000000 
0.520833 16.172870 0.000000 
0.520833 16.813912 0.000000 
0.520833 17.469198 0.000000 
1.562500 14.337333 0.000000 
1.562500 14.936127 0.000000 
1.562500 15.547846 0.000000 
1.562500 16.172870 0.000000 
1.562500 16.813912 0.000000 
1.562500 17.469198 0.000000 
2.604167 14.337333 0.000000 
2.604167 14.936127 0.000000 
2.604167 15.547846 0.000000 
2.604167 16.172870 0.000000 
2.604167 16.813912 0.000000 
2.604167 17.469198 0.000000 
3.645833 14.337333 0.000000 
3.645833 14.936127 0.000000 
3.645833 15.547846 0.000000 
3.645833 16.172870 0.000000 
3.645833 16.813912 0.000000 
3.645833 17.469198 0.000000 
4.687500 14.337333 0.000000 
4.687500 14.936127 0.000000 
4.687500 15.547846 0.000000 
4.687500 16.172870 0.000000 
4.687500 16.813912 0.000000 
4.687500 17.469198 0.000000 
5.729167 14.337333 0.000000 
5.729167 14.936127 0.000000 
5.729167 15.547846 0.000000 
5.729167 16.172870 0.000000 
5.729167 16.813912 0.000000 
5.729167 17.469198 0.000000 
0.520833 18.144035 0.000000 
0.520833 18.840626 0.000000 
0.520833 19.554250 0.000000 
0.520833 20.285602 0.000000 
0.520833 21.036061 0.000000 
0.520833 21.806194 0.000000 
1.562500 18.144035 0.000000 
1.562500 18.840626 0.000000 
1.562500 19.554250 0.000000 
1.562500 20.285602 0.000000 
1.562500 21.036061 0.000000 
1.562500 21.806194 0.000000 
2.604167 18.144035 0.000000 
2.604167 18.840626 0.000000 
2.604167 19.554250 0.000000 
2.604167 20.285602 0.000000 
2.604167 21.036061 0.000000 
2.604167 21.806194 0.000000 
3.645833 18.144035 0.000000 
3.645833 18.840626 0.000000 
3.645833 19.554250 0.000000 
3.645833 20.285602 0.000000 
3.645833 21.036061 0.000000 
3.645833 21.806194 0.000000 
4.687500 18.144035 0.000000 
4.687500 18.840626 0.000000 
4.687500 19.554250 0.000000 
4.687500 20.285602 0.000000 
4.687500 21.036061 0.000000 
4.687500 21.806194 0.000000 
5.729167 18.144035 0.000000 
5.729167 18.840626 0.000000 
5.729167 19.554250 0.000000 
5.729167 20.285602 0.000000 
5.729167 21.036061 0.000000 
5.729167 21.806194 0.000000 
0.520833 22.604387 0.000000 
0.520833 23.435766 0.000000 
0.520833 24.303050 0.000000 
0.520833 25.212175 0.000000 
0.520833 26.152657 0.000000 
0.520833 27.127073 0.000000 
1.562500 22.604387 0.000000 
1.562500 23.435766 0.000000 
1.562500 24.303050 0.000000 
1.562500 25.212175 0.000000 
1.562500 26.152657 0.000000 
1.562500 27.127073 0.000000 
2.604167 22.604387 0.000000 
2.604167 23.435766 0.000000 
2.604167 24.303050 0.000000 
2.604167 25.212175 0.000000 
2.604167 26.152657 0.000000 
2.604167 27.127073 0.000000 
3.645833 22.604387 0.000000 
3.645833 23.435766 0.000000 
3.645833 24.303050 0.000000 
3.645833 25.212175 0.000000 
3.645833 26.152657 0.000000 
3.645833 27.127073 0.000000 
4.687500 22.604387 0.000000 
4.687500 23.435766 0.000000 
4.687500 24.303050 0.000000 
4.687500 25.212175 0.000000 
4.687500 26.152657 0.000000 
4.687500 27.127073 0.000000 
5.729167 22.604387 0.000000 
5.729167 23.435766 0.000000 
5.729167 24.303050 0.000000 
5.729167 25.212175 0.000000 
5.729167 26.152657 0.000000 
5.729167 27.127073 0.000000 

POINT_DATA 288
SCALARS sigma_xx FLOAT 1
LOOKUP_TABLE default
0.000000
0.000000
0.000000
0.000000
0.000000
0.000000
0.000000
0.000000
0.000000
0.000000
0.000000
0.000000
0.000000
0.000000
0.000000
0.000000
0.000000
0.000000
0.000000
0.000000
0.000000
0.000000
0.000000
0.000000
0.000000
0.000000
0.000000
0.000000
0.000000
0.000000
0.000000
0.000000
0.000000
0.000000
0.000000
0.000000
>>>>>>> Stashed changes
0.000000
-0.000000
-0.000000
-0.000000
-0.000000
-0.000000
-0.000000
-0.000000
-0.000000
-0.000000
-0.000000
-0.000000
-0.000000
-0.000000
-0.000000
-0.000000
-0.000000
-0.000000
-0.000000
-0.000000
-0.000000
-0.000000
-0.000000
-0.000000
-0.000000
-0.000000
-0.000000
-0.000000
-0.000000
-0.000000
-0.000000
-0.000000
-0.000000
-0.000000
<<<<<<< Updated upstream
-0.000000
-0.000000
=======
0.000000
-0.000000
0.000000
0.000000
0.000000
-0.000000
0.000000
>>>>>>> Stashed changes
-0.000000
-0.000000
-0.000000
-0.000000
-0.000000
-0.000000
-0.000000
-0.000000
-0.000000
-0.000000
-0.000000
-0.000000
-0.000000
-0.000000
-0.000000
-0.000000
-0.000000
-0.000000
-0.000000
-0.000000
-0.000000
-0.000000
-0.000000
-0.000000
-0.000000
-0.000000
-0.000000
-0.000000
-0.000000
-0.000000
-0.000000
-0.000000
-0.000000
-0.000000
-0.000000
-0.000000
-0.000000
-0.000000
-0.000000
-0.000000
-0.000000
-0.000000
<<<<<<< Updated upstream
=======
0.000000
>>>>>>> Stashed changes
-0.000000
-0.000000
-0.000000
-0.000000
-0.000000
<<<<<<< Updated upstream
-0.000000
-0.000000
-0.000000
-0.000000
-0.000000
-0.000000
-0.000000
-0.000000
-0.000000
-0.000000
-0.000000
-0.000000
-0.000000
-0.000000
-0.000000
-0.000000
-0.000000
-0.000000
-0.000000
-0.000000
-0.000000
-0.000000
-0.000000
-0.000000
-0.000000
-0.000000
-0.000000
-0.000000
-0.000000
-0.000000
-0.000000
-0.000000
-0.000000
-0.000000
-0.000000
-0.000000
-0.000000
-0.000000
-0.000000
-0.000000
-0.000000
-0.000000
-0.000000
-0.000000
-0.000000
-0.000000
-0.000000
-0.000000
-0.000000
-0.000000
-0.000000
-0.000000
-0.000000
-0.000000
=======
0.000000
>>>>>>> Stashed changes
-0.000000
-0.000000
-0.000000
0.000000
-0.000000
0.000000
-0.000000
-0.000000
-0.000000
<<<<<<< Updated upstream
-0.000000
-0.000000
-0.000000
-0.000000
-0.000000
=======
0.000000
-0.000000
0.000000
-0.000000
-0.000000
-0.000000
0.000000
-0.000000
0.000000
>>>>>>> Stashed changes
-0.000000
-0.000000
-0.000000
-0.000000
-0.000000
-0.000000
<<<<<<< Updated upstream
-0.000000
-0.000000
-0.000000
-0.000000
-0.000000
-0.000000
-0.000000
-0.000000
-0.000000
-0.000000
-0.000000
-0.000000
-0.000000
-0.000000
-0.000000
-0.000000
-0.000000
-0.000000
-0.000000
-0.000000
-0.000000
-0.000000
-0.000000
-0.000000
-0.000000
-0.000000
-0.000000
-0.000000
-0.000000
-0.000000
-0.000000
-0.000000
-0.000000
-0.000000
-0.000000
-0.000000
-0.000000
-0.000000
-0.000000
-0.000000
-0.000000
-0.000000
-0.000000
-0.000000
-0.000000
-0.000000
-0.000000
-0.000000
-0.000000
-0.000000
-0.000000
-0.000000
-0.000000
-0.000000
-0.000000
-0.000000
-0.000000
-0.000000
-0.000000
-0.000000
-0.000000
-0.000000
-0.000000
-0.000000
-0.000000
-0.000000
-0.000000
-0.000000
-0.000000
-0.000000
-0.000000
-0.000000
-0.000000
-0.000000
-0.000000
-0.000000
-0.000000
-0.000000
-0.000000
-0.000000
-0.000000
-0.000000
-0.000000
-0.000000
-0.000000
-0.000000
-0.000000
-0.000000
-0.000000
-0.000000
-0.000000
-0.000000
-0.000000
-0.000000
-0.000000
-0.000000
-0.000000
-0.000000
-0.000000
-0.000000
-0.000000
-0.000000
-0.000000
-0.000000
-0.000000
-0.000000
-0.000000
-0.000000
-0.000000
-0.000000
-0.000000
-0.000000
-0.000000
-0.000000
-0.000000
-0.000000
-0.000000
-0.000000
-0.000000
-0.000000
-0.000000
-0.000000
-0.000000
-0.000000
-0.000000
-0.000000
-0.000000
0.000000
-0.000000
-0.000000
-0.000000
-0.000000
-0.000000
-0.000000
-0.000000
-0.000000
-0.000000
-0.000000
-0.000000
0.000000
-0.000000
-0.000000
-0.000000
-0.000000
-0.000000
-0.000000
-0.000000
-0.000000
-0.000000
-0.000000
-0.000000
-0.000000
-0.000000
-0.000000
-0.000000
-0.000000
-0.000000
-0.000000
0.000000
-0.000000
-0.000000
-0.000000
-0.000000
-0.000000
-0.000000
-0.000000
-0.000000
-0.000000
-0.000000
-0.000000
-0.000000
-0.000000
-0.000000
-0.000000
-0.000000
-0.000000
-0.000000
0.000000
-0.000000
-0.000000
-0.000000
-0.000000
-0.000000
-0.000000
-0.000000
-0.000000
-0.000000
-0.000000
-0.000000
-0.000000
-0.000000
-0.000000
-0.000000
-0.000000
-0.000000
-0.000000
-0.000000
-0.000000
-0.000000
-0.000000
-0.000000
-0.000000
-0.000000
-0.000000
-0.000000
-0.000000
-0.000000
-0.000000
-0.000000
-0.000000
-0.000000
-0.000000
0.000000
-0.000000
0.000000
-0.000000
-0.000000
-0.000000
0.000000
-0.000000
-0.000000
-0.000000
-0.000000
-0.000000
-0.000000
-0.000000
-0.000000
-0.000000
-0.000000
-0.000000
-0.000000
-0.000000
-0.000000
-0.000000
-0.000000
-0.000000
-0.000000
-0.000000
-0.000000
-0.000000
-0.000000
-0.000000
-0.000000
-0.000000
-0.000000
-0.000000
-0.000000
-0.000000
-0.000000
-0.000000
-0.000000
-0.000000
-0.000000
-0.000000
-0.000000
-0.000000
-0.000000
-0.000000
-0.000000
-0.000000
-0.000000
-0.000000
-0.000000
-0.000000
-0.000000
-0.000000
-0.000000
-0.000000
-0.000000
-0.000000
-0.000000
-0.000000
-0.000000
-0.000000
-0.000000
-0.000000
-0.000000
-0.000000
-0.000000
-0.000000
-0.000000
-0.000000
-0.000000
-0.000000
-0.000000
-0.000000
-0.000000
-0.000000
-0.000000
-0.000000
-0.000000
-0.000000
-0.000000
-0.000000
-0.000000
-0.000000
-0.000000
-0.000000
-0.000000
-0.000000
-0.000000
-0.000000
-0.000000
-0.000000
-0.000000
-0.000000
0.000000
-0.000000
-0.000000
-0.000000
-0.000000
-0.000000
-0.000000
-0.000000
-0.000000
-0.000000
-0.000000
-0.000000
-0.000000
-0.000000
-0.000000
-0.000000
-0.000000
-0.000000
-0.000000
-0.000000
-0.000000
-0.000000
-0.000000
-0.000000
-0.000000
-0.000000
-0.000000
-0.000000
-0.000000
-0.000000
-0.000000
-0.000000
-0.000000
-0.000000
-0.000000
-0.000000
-0.000000
0.000000
-0.000000
0.000000
-0.000000
-0.000000
-0.000000
-0.000000
-0.000000
-0.000000
-0.000000
-0.000000
-0.000000
-0.000000
-0.000000
-0.000000
-0.000000
-0.000000
-0.000000
-0.000000
-0.000000
-0.000000
0.000000
-0.000000
0.000000
-0.000000
-0.000000
-0.000000
-0.000000
-0.000000
-0.000000
-0.000000
-0.000000
-0.000000
-0.000000
-0.000000
-0.000000
-0.000000
-0.000000
-0.000000
-0.000000
-0.000000
-0.000000
-0.000000
-0.000000
-0.000000
-0.000000
-0.000000
-0.000000
-0.000000
0.000000
-0.000000
-0.000000
-0.000000
-0.000000
-0.000000
-0.000000
-0.000000
-0.000000
-0.000000
-0.000000
-0.000000
-0.000000
-0.000000
-0.000000
-0.000000
-0.000000
-0.000000
-0.000000
-0.000000
-0.000000
-0.000000
-0.000000
-0.000000
-0.000000
-0.000000
-0.000000
-0.000000
-0.000000
-0.000000
-0.000000
-0.000000
-0.000000
-0.000000
-0.000000
-0.000000
-0.000000
-0.000000
-0.000000
-0.000000
-0.000000
-0.000000
-0.000000
-0.000000
-0.000000
-0.000000
-0.000000
-0.000000
-0.000000
-0.000000
-0.000000
-0.000000
-0.000000
-0.000000
-0.000000
-0.000000
-0.000000
-0.000000
-0.000000
-0.000000
-0.000000
-0.000000
-0.000000
-0.000000
-0.000000
-0.000000
-0.000000
-0.000000
-0.000000
-0.000000
-0.000000
-0.000000
-0.000000
-0.000000
-0.000000
-0.000000
-0.000000
-0.000000
-0.000000
-0.000000
-0.000000
-0.000000
-0.000000
-0.000000
-0.000000
-0.000000
-0.000000
-0.000000
-0.000000
-0.000000
-0.000000
-0.000000
-0.000000
-0.000000
-0.000000
-0.000000
-0.000000
-0.000000
-0.000000
-0.000000
-0.000000
-0.000000
-0.000000
-0.000000
-0.000000
-0.000000
-0.000000
-0.000000
-0.000000
-0.000000
-0.000000
-0.000000
-0.000000
-0.000000
-0.000000
-0.000000
-0.000000
-0.000000
-0.000000
-0.000000
-0.000000
-0.000000
-0.000000
-0.000000
-0.000000
-0.000000
-0.000000
-0.000000
-0.000000
-0.000000
-0.000000
-0.000000
-0.000000
-0.000000
-0.000000
-0.000000
-0.000000
-0.000000
-0.000000
-0.000000
-0.000000
-0.000000
-0.000000
-0.000000
-0.000000
-0.000000
-0.000000
-0.000000
-0.000000
-0.000000
-0.000000
-0.000000
-0.000000
-0.000000
-0.000000
-0.000000
-0.000000
-0.000000
-0.000000
-0.000000
-0.000000
-0.000000
-0.000000
-0.000000
-0.000000
-0.000000
-0.000000
-0.000000
-0.000000
-0.000000
-0.000000
-0.000000
-0.000000
-0.000000
-0.000000
-0.000000
-0.000000
-0.000000
-0.000000
-0.000000
-0.000000
-0.000000
-0.000000
-0.000000
-0.000000
-0.000000
-0.000000
-0.000000
-0.000000
0.000000
-0.000000
-0.000000
-0.000000
-0.000000
-0.000000
-0.000000
-0.000000
-0.000000
-0.000000
-0.000000
-0.000000
-0.000000
-0.000000
-0.000000
-0.000000
-0.000000
-0.000000
-0.000000
-0.000000
-0.000000
-0.000000
-0.000000
-0.000000
-0.000000
-0.000000
-0.000000
-0.000000
-0.000000
-0.000000
-0.000000
-0.000000
-0.000000
-0.000000
-0.000000
-0.000000
-0.000000
-0.000000
-0.000000
-0.000000
-0.000000
-0.000000
-0.000000
-0.000000
-0.000000
-0.000000
-0.000000
-0.000000
-0.000000
-0.000000
-0.000000
-0.000000
-0.000000
-0.000000
-0.000000
-0.000000
-0.000000
-0.000000
-0.000000
-0.000000
-0.000000
-0.000000
-0.000000
-0.000000
-0.000000
-0.000000
-0.000000
-0.000000
-0.000000
-0.000000
-0.000000
-0.000000
-0.000000
-0.000000
0.000000
-0.000000
-0.000000
-0.000000
-0.000000
-0.000000
-0.000000
-0.000000
-0.000000
-0.000000
-0.000000
-0.000000
-0.000000
-0.000000
-0.000000
-0.000000
-0.000000
-0.000000
-0.000000
-0.000000
-0.000000
-0.000000
-0.000000
-0.000000
-0.000000
-0.000000
-0.000000
-0.000000
-0.000000
-0.000000
-0.000000
-0.000000
-0.000000
-0.000000
-0.000000
-0.000000
-0.000000
-0.000000
-0.000000
-0.000000
-0.000000
-0.000000
-0.000000
-0.000000
-0.000000
-0.000000
-0.000000
-0.000000
-0.000000
-0.000000
-0.000000
-0.000000
-0.000000
-0.000000
-0.000000
-0.000000
-0.000000
-0.000000
-0.000000
-0.000000
-0.000000
-0.000000
-0.000000
-0.000000
-0.000000
-0.000000
-0.000000
-0.000000
-0.000000
-0.000000
-0.000000
-0.000000
-0.000000
-0.000000
-0.000000
-0.000000
-0.000000
-0.000000
-0.000000
-0.000000
-0.000000
-0.000000
-0.000000
-0.000000
-0.000000
-0.000000
-0.000000
-0.000000
-0.000000
-0.000000
-0.000000
-0.000000
-0.000000
-0.000000
-0.000000
-0.000000
-0.000000
-0.000000
-0.000000
-0.000000
-0.000000
-0.000000