# vtk DataFile Version 2.0
MATLAB generated vtk file, WMC
ASCII
DATASET UNSTRUCTURED_GRID
<<<<<<< Updated upstream
POINTS 2048 double
0.024414 0.013851 0.000000 
0.024414 0.041554 0.000000 
0.073242 0.013851 0.000000 
0.073242 0.041554 0.000000 
0.024414 0.069261 0.000000 
0.024414 0.096984 0.000000 
0.073242 0.069261 0.000000 
0.073242 0.096984 0.000000 
0.024414 0.124716 0.000000 
0.024414 0.152457 0.000000 
0.073242 0.124716 0.000000 
0.073242 0.152457 0.000000 
0.024414 0.180208 0.000000 
0.024414 0.207970 0.000000 
0.073242 0.180208 0.000000 
0.073242 0.207970 0.000000 
0.024414 0.235741 0.000000 
0.024414 0.263522 0.000000 
0.073242 0.235741 0.000000 
0.073242 0.263522 0.000000 
0.024414 0.291314 0.000000 
0.024414 0.319115 0.000000 
0.073242 0.291314 0.000000 
0.073242 0.319115 0.000000 
0.024414 0.346924 0.000000 
0.024414 0.374744 0.000000 
0.073242 0.346924 0.000000 
0.073242 0.374744 0.000000 
0.024414 0.402575 0.000000 
0.024414 0.430416 0.000000 
0.073242 0.402575 0.000000 
0.073242 0.430416 0.000000 
0.024414 0.458266 0.000000 
0.024414 0.486126 0.000000 
0.073242 0.458266 0.000000 
0.073242 0.486126 0.000000 
0.024414 0.513997 0.000000 
0.024414 0.541877 0.000000 
0.073242 0.513997 0.000000 
0.073242 0.541877 0.000000 
0.024414 0.569767 0.000000 
0.024414 0.597666 0.000000 
0.073242 0.569767 0.000000 
0.073242 0.597666 0.000000 
0.024414 0.625576 0.000000 
0.024414 0.653497 0.000000 
0.073242 0.625576 0.000000 
0.073242 0.653497 0.000000 
0.024414 0.681428 0.000000 
0.024414 0.709368 0.000000 
0.073242 0.681428 0.000000 
0.073242 0.709368 0.000000 
0.024414 0.737317 0.000000 
0.024414 0.765278 0.000000 
0.073242 0.737317 0.000000 
0.073242 0.765278 0.000000 
0.024414 0.793248 0.000000 
0.024414 0.821228 0.000000 
0.073242 0.793248 0.000000 
0.073242 0.821228 0.000000 
0.024414 0.849218 0.000000 
0.024414 0.877220 0.000000 
0.073242 0.849218 0.000000 
0.073242 0.877220 0.000000 
0.024414 0.905229 0.000000 
0.024414 0.933250 0.000000 
0.073242 0.905229 0.000000 
0.073242 0.933250 0.000000 
0.024414 0.961281 0.000000 
0.024414 0.989321 0.000000 
0.073242 0.961281 0.000000 
0.073242 0.989321 0.000000 
0.024414 1.017373 0.000000 
0.024414 1.045433 0.000000 
0.073242 1.017373 0.000000 
0.073242 1.045433 0.000000 
0.024414 1.073505 0.000000 
0.024414 1.101585 0.000000 
0.073242 1.073505 0.000000 
0.073242 1.101585 0.000000 
0.024414 1.129676 0.000000 
0.024414 1.157779 0.000000 
0.073242 1.129676 0.000000 
0.073242 1.157779 0.000000 
0.024414 1.185890 0.000000 
0.024414 1.214013 0.000000 
0.073242 1.185890 0.000000 
0.073242 1.214013 0.000000 
0.024414 1.242145 0.000000 
0.024414 1.270287 0.000000 
0.073242 1.242145 0.000000 
0.073242 1.270287 0.000000 
0.024414 1.298440 0.000000 
0.024414 1.326602 0.000000 
0.073242 1.298440 0.000000 
0.073242 1.326602 0.000000 
0.024414 1.354776 0.000000 
0.024414 1.382959 0.000000 
0.073242 1.354776 0.000000 
0.073242 1.382959 0.000000 
0.024414 1.411152 0.000000 
0.024414 1.439358 0.000000 
0.073242 1.411152 0.000000 
0.073242 1.439358 0.000000 
0.024414 1.467572 0.000000 
0.024414 1.495796 0.000000 
0.073242 1.467572 0.000000 
0.073242 1.495796 0.000000 
0.024414 1.524031 0.000000 
0.024414 1.552276 0.000000 
0.073242 1.524031 0.000000 
0.073242 1.552276 0.000000 
0.024414 1.580529 0.000000 
0.024414 1.608796 0.000000 
0.073242 1.580529 0.000000 
0.073242 1.608796 0.000000 
0.024414 1.637071 0.000000 
0.024414 1.665358 0.000000 
0.073242 1.637071 0.000000 
0.073242 1.665358 0.000000 
0.024414 1.693655 0.000000 
0.024414 1.721961 0.000000 
0.073242 1.693655 0.000000 
0.073242 1.721961 0.000000 
0.024414 1.750281 0.000000 
0.024414 1.778608 0.000000 
0.073242 1.750281 0.000000 
0.073242 1.778608 0.000000 
0.024414 1.806945 0.000000 
0.024414 1.835293 0.000000 
0.073242 1.806945 0.000000 
0.073242 1.835293 0.000000 
0.024414 1.863654 0.000000 
0.024414 1.892022 0.000000 
0.073242 1.863654 0.000000 
0.073242 1.892022 0.000000 
0.024414 1.920404 0.000000 
0.024414 1.948795 0.000000 
0.073242 1.920404 0.000000 
0.073242 1.948795 0.000000 
0.024414 1.977193 0.000000 
0.024414 2.005607 0.000000 
0.073242 1.977193 0.000000 
0.073242 2.005607 0.000000 
0.024414 2.034029 0.000000 
0.024414 2.062460 0.000000 
0.073242 2.034029 0.000000 
0.073242 2.062460 0.000000 
0.024414 2.090903 0.000000 
0.024414 2.119357 0.000000 
0.073242 2.090903 0.000000 
0.073242 2.119357 0.000000 
0.024414 2.147821 0.000000 
0.024414 2.176293 0.000000 
0.073242 2.147821 0.000000 
0.073242 2.176293 0.000000 
0.024414 2.204779 0.000000 
0.024414 2.233275 0.000000 
0.073242 2.204779 0.000000 
0.073242 2.233275 0.000000 
0.024414 2.261779 0.000000 
0.024414 2.290297 0.000000 
0.073242 2.261779 0.000000 
0.073242 2.290297 0.000000 
0.024414 2.318823 0.000000 
0.024414 2.347361 0.000000 
0.073242 2.318823 0.000000 
0.073242 2.347361 0.000000 
0.024414 2.375910 0.000000 
0.024414 2.404469 0.000000 
0.073242 2.375910 0.000000 
0.073242 2.404469 0.000000 
0.024414 2.433040 0.000000 
0.024414 2.461619 0.000000 
0.073242 2.433040 0.000000 
0.073242 2.461619 0.000000 
0.024414 2.490211 0.000000 
0.024414 2.518811 0.000000 
0.073242 2.490211 0.000000 
0.073242 2.518811 0.000000 
0.024414 2.547423 0.000000 
0.024414 2.576046 0.000000 
0.073242 2.547423 0.000000 
0.073242 2.576046 0.000000 
0.024414 2.604679 0.000000 
0.024414 2.633323 0.000000 
0.073242 2.604679 0.000000 
0.073242 2.633323 0.000000 
0.024414 2.661980 0.000000 
0.024414 2.690644 0.000000 
0.073242 2.661980 0.000000 
0.073242 2.690644 0.000000 
0.024414 2.719320 0.000000 
0.024414 2.748008 0.000000 
0.073242 2.719320 0.000000 
0.073242 2.748008 0.000000 
0.024414 2.776705 0.000000 
0.024414 2.805415 0.000000 
0.073242 2.776705 0.000000 
0.073242 2.805415 0.000000 
0.024414 2.834133 0.000000 
0.024414 2.862864 0.000000 
0.073242 2.834133 0.000000 
0.073242 2.862864 0.000000 
0.024414 2.891605 0.000000 
0.024414 2.920355 0.000000 
0.073242 2.891605 0.000000 
0.073242 2.920355 0.000000 
0.024414 2.949119 0.000000 
0.024414 2.977892 0.000000 
0.073242 2.949119 0.000000 
0.073242 2.977892 0.000000 
0.024414 3.006675 0.000000 
0.024414 3.035472 0.000000 
0.073242 3.006675 0.000000 
0.073242 3.035472 0.000000 
0.024414 3.064278 0.000000 
0.024414 3.093095 0.000000 
0.073242 3.064278 0.000000 
0.073242 3.093095 0.000000 
0.024414 3.121923 0.000000 
0.024414 3.150761 0.000000 
0.073242 3.121923 0.000000 
0.073242 3.150761 0.000000 
0.024414 3.179610 0.000000 
0.024414 3.208470 0.000000 
0.073242 3.179610 0.000000 
0.073242 3.208470 0.000000 
0.024414 3.237341 0.000000 
0.024414 3.266223 0.000000 
0.073242 3.237341 0.000000 
0.073242 3.266223 0.000000 
0.024414 3.295117 0.000000 
0.024414 3.324020 0.000000 
0.073242 3.295117 0.000000 
0.073242 3.324020 0.000000 
0.024414 3.352938 0.000000 
0.024414 3.381863 0.000000 
0.073242 3.352938 0.000000 
0.073242 3.381863 0.000000 
0.024414 3.410801 0.000000 
0.024414 3.439750 0.000000 
0.073242 3.410801 0.000000 
0.073242 3.439750 0.000000 
0.024414 3.468707 0.000000 
0.024414 3.497678 0.000000 
0.073242 3.468707 0.000000 
0.073242 3.497678 0.000000 
0.024414 3.526658 0.000000 
0.024414 3.555651 0.000000 
0.073242 3.526658 0.000000 
0.073242 3.555651 0.000000 
0.024414 3.584653 0.000000 
0.024414 3.613668 0.000000 
0.073242 3.584653 0.000000 
0.073242 3.613668 0.000000 
0.024414 3.642692 0.000000 
0.024414 3.671729 0.000000 
0.073242 3.642692 0.000000 
0.073242 3.671729 0.000000 
0.024414 3.700777 0.000000 
0.024414 3.729835 0.000000 
0.073242 3.700777 0.000000 
0.073242 3.729835 0.000000 
0.024414 3.758905 0.000000 
0.024414 3.787987 0.000000 
0.073242 3.758905 0.000000 
0.073242 3.787987 0.000000 
0.024414 3.817079 0.000000 
0.024414 3.846182 0.000000 
0.073242 3.817079 0.000000 
0.073242 3.846182 0.000000 
0.024414 3.875297 0.000000 
0.024414 3.904421 0.000000 
0.073242 3.875297 0.000000 
0.073242 3.904421 0.000000 
0.024414 3.933559 0.000000 
0.024414 3.962706 0.000000 
0.073242 3.933559 0.000000 
0.073242 3.962706 0.000000 
0.024414 3.991864 0.000000 
0.024414 4.021036 0.000000 
0.073242 3.991864 0.000000 
0.073242 4.021036 0.000000 
0.024414 4.050218 0.000000 
0.024414 4.079411 0.000000 
0.073242 4.050218 0.000000 
0.073242 4.079411 0.000000 
0.024414 4.108617 0.000000 
0.024414 4.137831 0.000000 
0.073242 4.108617 0.000000 
0.073242 4.137831 0.000000 
0.024414 4.167058 0.000000 
0.024414 4.196295 0.000000 
0.073242 4.167058 0.000000 
0.073242 4.196295 0.000000 
0.024414 4.225545 0.000000 
0.024414 4.254806 0.000000 
0.073242 4.225545 0.000000 
0.073242 4.254806 0.000000 
0.024414 4.284078 0.000000 
0.024414 4.313363 0.000000 
0.073242 4.284078 0.000000 
0.073242 4.313363 0.000000 
0.024414 4.342655 0.000000 
0.024414 4.371962 0.000000 
0.073242 4.342655 0.000000 
0.073242 4.371962 0.000000 
0.024414 4.401279 0.000000 
0.024414 4.430608 0.000000 
0.073242 4.401279 0.000000 
0.073242 4.430608 0.000000 
0.024414 4.459949 0.000000 
0.024414 4.489301 0.000000 
0.073242 4.459949 0.000000 
0.073242 4.489301 0.000000 
0.024414 4.518662 0.000000 
0.024414 4.548038 0.000000 
0.073242 4.518662 0.000000 
0.073242 4.548038 0.000000 
0.024414 4.577426 0.000000 
0.024414 4.606821 0.000000 
0.073242 4.577426 0.000000 
0.073242 4.606821 0.000000 
0.024414 4.636232 0.000000 
0.024414 4.665651 0.000000 
0.073242 4.636232 0.000000 
0.073242 4.665651 0.000000 
0.024414 4.695082 0.000000 
0.024414 4.724526 0.000000 
0.073242 4.695082 0.000000 
0.073242 4.724526 0.000000 
0.024414 4.753981 0.000000 
0.024414 4.783447 0.000000 
0.073242 4.753981 0.000000 
0.073242 4.783447 0.000000 
0.024414 4.812925 0.000000 
0.024414 4.842414 0.000000 
0.073242 4.812925 0.000000 
0.073242 4.842414 0.000000 
0.024414 4.871915 0.000000 
0.024414 4.901427 0.000000 
0.073242 4.871915 0.000000 
0.073242 4.901427 0.000000 
0.024414 4.930954 0.000000 
0.024414 4.960490 0.000000 
0.073242 4.930954 0.000000 
0.073242 4.960490 0.000000 
0.024414 4.990035 0.000000 
0.024414 5.019595 0.000000 
0.073242 4.990035 0.000000 
0.073242 5.019595 0.000000 
[...]
POINT_DATA 2048
=======
POINTS 288 double
0.520833 0.302597 0.000000 
0.520833 0.907792 0.000000 
0.520833 1.512986 0.000000 
0.520833 2.118181 0.000000 
0.520833 2.723375 0.000000 
0.520833 3.328570 0.000000 
1.562500 0.302597 0.000000 
1.562500 0.907792 0.000000 
1.562500 1.512986 0.000000 
1.562500 2.118181 0.000000 
1.562500 2.723375 0.000000 
1.562500 3.328570 0.000000 
2.604167 0.302597 0.000000 
2.604167 0.907792 0.000000 
2.604167 1.512986 0.000000 
2.604167 2.118181 0.000000 
2.604167 2.723375 0.000000 
2.604167 3.328570 0.000000 
3.645833 0.302597 0.000000 
3.645833 0.907792 0.000000 
3.645833 1.512986 0.000000 
3.645833 2.118181 0.000000 
3.645833 2.723375 0.000000 
3.645833 3.328570 0.000000 
4.687500 0.302597 0.000000 
4.687500 0.907792 0.000000 
4.687500 1.512986 0.000000 
4.687500 2.118181 0.000000 
4.687500 2.723375 0.000000 
4.687500 3.328570 0.000000 
5.729167 0.302597 0.000000 
5.729167 0.907792 0.000000 
5.729167 1.512986 0.000000 
5.729167 2.118181 0.000000 
5.729167 2.723375 0.000000 
5.729167 3.328570 0.000000 
0.520833 3.937650 0.000000 
0.520833 4.557053 0.000000 
0.520833 5.186114 0.000000 
0.520833 5.824362 0.000000 
0.520833 6.469838 0.000000 
0.520833 7.116597 0.000000 
1.562500 3.937650 0.000000 
1.562500 4.557053 0.000000 
1.562500 5.186114 0.000000 
1.562500 5.824362 0.000000 
1.562500 6.469838 0.000000 
1.562500 7.116597 0.000000 
2.604167 3.937650 0.000000 
2.604167 4.557053 0.000000 
2.604167 5.186114 0.000000 
2.604167 5.824362 0.000000 
2.604167 6.469838 0.000000 
2.604167 7.116597 0.000000 
3.645833 3.937650 0.000000 
3.645833 4.557053 0.000000 
3.645833 5.186114 0.000000 
3.645833 5.824362 0.000000 
3.645833 6.469838 0.000000 
3.645833 7.116597 0.000000 
4.687500 3.937650 0.000000 
4.687500 4.557053 0.000000 
4.687500 5.186114 0.000000 
4.687500 5.824362 0.000000 
4.687500 6.469838 0.000000 
4.687500 7.116597 0.000000 
5.729167 3.937650 0.000000 
5.729167 4.557053 0.000000 
5.729167 5.186114 0.000000 
5.729167 5.824362 0.000000 
5.729167 6.469838 0.000000 
5.729167 7.116597 0.000000 
0.520833 7.766898 0.000000 
0.520833 8.423616 0.000000 
0.520833 9.086612 0.000000 
0.520833 9.755820 0.000000 
0.520833 10.431032 0.000000 
0.520833 11.111632 0.000000 
1.562500 7.766898 0.000000 
1.562500 8.423616 0.000000 
1.562500 9.086612 0.000000 
1.562500 9.755820 0.000000 
1.562500 10.431032 0.000000 
1.562500 11.111632 0.000000 
2.604167 7.766898 0.000000 
2.604167 8.423616 0.000000 
2.604167 9.086612 0.000000 
2.604167 9.755820 0.000000 
2.604167 10.431032 0.000000 
2.604167 11.111632 0.000000 
3.645833 7.766898 0.000000 
3.645833 8.423616 0.000000 
3.645833 9.086612 0.000000 
3.645833 9.755820 0.000000 
3.645833 10.431032 0.000000 
3.645833 11.111632 0.000000 
4.687500 7.766898 0.000000 
4.687500 8.423616 0.000000 
4.687500 9.086612 0.000000 
4.687500 9.755820 0.000000 
4.687500 10.431032 0.000000 
4.687500 11.111632 0.000000 
5.729167 7.766898 0.000000 
5.729167 8.423616 0.000000 
5.729167 9.086612 0.000000 
5.729167 9.755820 0.000000 
5.729167 10.431032 0.000000 
5.729167 11.111632 0.000000 
0.520833 11.800719 0.000000 
0.520833 12.499465 0.000000 
0.520833 13.205219 0.000000 
0.520833 13.916095 0.000000 
0.520833 14.631916 0.000000 
0.520833 15.352802 0.000000 
1.562500 11.800719 0.000000 
1.562500 12.499465 0.000000 
1.562500 13.205219 0.000000 
1.562500 13.916095 0.000000 
1.562500 14.631916 0.000000 
1.562500 15.352802 0.000000 
2.604167 11.800719 0.000000 
2.604167 12.499465 0.000000 
2.604167 13.205219 0.000000 
2.604167 13.916095 0.000000 
2.604167 14.631916 0.000000 
2.604167 15.352802 0.000000 
3.645833 11.800719 0.000000 
3.645833 12.499465 0.000000 
3.645833 13.205219 0.000000 
3.645833 13.916095 0.000000 
3.645833 14.631916 0.000000 
3.645833 15.352802 0.000000 
4.687500 11.800719 0.000000 
4.687500 12.499465 0.000000 
4.687500 13.205219 0.000000 
4.687500 13.916095 0.000000 
4.687500 14.631916 0.000000 
4.687500 15.352802 0.000000 
5.729167 11.800719 0.000000 
5.729167 12.499465 0.000000 
5.729167 13.205219 0.000000 
5.729167 13.916095 0.000000 
5.729167 14.631916 0.000000 
5.729167 15.352802 0.000000 
0.520833 16.082478 0.000000 
0.520833 16.821980 0.000000 
0.520833 17.572669 0.000000 
0.520833 18.333233 0.000000 
0.520833 19.102783 0.000000 
0.520833 19.877964 0.000000 
1.562500 16.082478 0.000000 
1.562500 16.821980 0.000000 
1.562500 17.572669 0.000000 
1.562500 18.333233 0.000000 
1.562500 19.102783 0.000000 
1.562500 19.877964 0.000000 
2.604167 16.082478 0.000000 
2.604167 16.821980 0.000000 
2.604167 17.572669 0.000000 
2.604167 18.333233 0.000000 
2.604167 19.102783 0.000000 
2.604167 19.877964 0.000000 
3.645833 16.082478 0.000000 
3.645833 16.821980 0.000000 
3.645833 17.572669 0.000000 
3.645833 18.333233 0.000000 
3.645833 19.102783 0.000000 
3.645833 19.877964 0.000000 
4.687500 16.082478 0.000000 
4.687500 16.821980 0.000000 
4.687500 17.572669 0.000000 
4.687500 18.333233 0.000000 
4.687500 19.102783 0.000000 
4.687500 19.877964 0.000000 
5.729167 16.082478 0.000000 
5.729167 16.821980 0.000000 
5.729167 17.572669 0.000000 
5.729167 18.333233 0.000000 
5.729167 19.102783 0.000000 
5.729167 19.877964 0.000000 
0.520833 20.662237 0.000000 
0.520833 21.456365 0.000000 
0.520833 22.261073 0.000000 
0.520833 23.075815 0.000000 
0.520833 23.903328 0.000000 
0.520833 24.741479 0.000000 
1.562500 20.662237 0.000000 
1.562500 21.456365 0.000000 
1.562500 22.261073 0.000000 
1.562500 23.075815 0.000000 
1.562500 23.903328 0.000000 
1.562500 24.741479 0.000000 
2.604167 20.662237 0.000000 
2.604167 21.456365 0.000000 
2.604167 22.261073 0.000000 
2.604167 23.075815 0.000000 
2.604167 23.903328 0.000000 
2.604167 24.741479 0.000000 
3.645833 20.662237 0.000000 
3.645833 21.456365 0.000000 
3.645833 22.261073 0.000000 
3.645833 23.075815 0.000000 
3.645833 23.903328 0.000000 
3.645833 24.741479 0.000000 
4.687500 20.662237 0.000000 
4.687500 21.456365 0.000000 
4.687500 22.261073 0.000000 
4.687500 23.075815 0.000000 
4.687500 23.903328 0.000000 
4.687500 24.741479 0.000000 
5.729167 20.662237 0.000000 
5.729167 21.456365 0.000000 
5.729167 22.261073 0.000000 
5.729167 23.075815 0.000000 
5.729167 23.903328 0.000000 
5.729167 24.741479 0.000000 
0.520833 25.593072 0.000000 
0.520833 26.456757 0.000000 
0.520833 27.331098 0.000000 
0.520833 28.218168 0.000000 
0.520833 29.118578 0.000000 
0.520833 30.032427 0.000000 
1.562500 25.593072 0.000000 
1.562500 26.456757 0.000000 
1.562500 27.331098 0.000000 
1.562500 28.218168 0.000000 
1.562500 29.118578 0.000000 
1.562500 30.032427 0.000000 
2.604167 25.593072 0.000000 
2.604167 26.456757 0.000000 
2.604167 27.331098 0.000000 
2.604167 28.218168 0.000000 
2.604167 29.118578 0.000000 
2.604167 30.032427 0.000000 
3.645833 25.593072 0.000000 
3.645833 26.456757 0.000000 
3.645833 27.331098 0.000000 
3.645833 28.218168 0.000000 
3.645833 29.118578 0.000000 
3.645833 30.032427 0.000000 
4.687500 25.593072 0.000000 
4.687500 26.456757 0.000000 
4.687500 27.331098 0.000000 
4.687500 28.218168 0.000000 
4.687500 29.118578 0.000000 
4.687500 30.032427 0.000000 
5.729167 25.593072 0.000000 
5.729167 26.456757 0.000000 
5.729167 27.331098 0.000000 
5.729167 28.218168 0.000000 
5.729167 29.118578 0.000000 
5.729167 30.032427 0.000000 
0.520833 30.968341 0.000000 
0.520833 31.920593 0.000000 
0.520833 32.884568 0.000000 
0.520833 33.865303 0.000000 
0.520833 34.861072 0.000000 
0.520833 35.874867 0.000000 
1.562500 30.968341 0.000000 
1.562500 31.920593 0.000000 
1.562500 32.884568 0.000000 
1.562500 33.865303 0.000000 
1.562500 34.861072 0.000000 
1.562500 35.874867 0.000000 
2.604167 30.968341 0.000000 
2.604167 31.920593 0.000000 
2.604167 32.884568 0.000000 
2.604167 33.865303 0.000000 
2.604167 34.861072 0.000000 
2.604167 35.874867 0.000000 
3.645833 30.968341 0.000000 
3.645833 31.920593 0.000000 
3.645833 32.884568 0.000000 
3.645833 33.865303 0.000000 
3.645833 34.861072 0.000000 
3.645833 35.874867 0.000000 
4.687500 30.968341 0.000000 
4.687500 31.920593 0.000000 
4.687500 32.884568 0.000000 
4.687500 33.865303 0.000000 
4.687500 34.861072 0.000000 
4.687500 35.874867 0.000000 
5.729167 30.968341 0.000000 
5.729167 31.920593 0.000000 
5.729167 32.884568 0.000000 
5.729167 33.865303 0.000000 
5.729167 34.861072 0.000000 
5.729167 35.874867 0.000000 

POINT_DATA 288
>>>>>>> Stashed changes
SCALARS sigma_xx FLOAT 1
LOOKUP_TABLE default
0.000000
0.000000
0.000000
0.000000
<<<<<<< Updated upstream
0.000000
0.000000
0.000000
0.000000
0.000000
-0.000000
0.000000
-0.000000
0.000000
0.000000
0.000000
0.000000
0.000000
0.000000
0.000000
0.000000
0.000000
0.000000
0.000000
0.000000
-0.000000
0.000000
-0.000000
0.000000
0.000000
0.000000
0.000000
0.000000
-0.000000
-0.000000
-0.000000
-0.000000
0.000000
-0.000000
-0.000000
-0.000000
-0.000000
-0.000000
-0.000000
-0.000000
-0.000000
-0.000000
-0.000000
-0.000000
-0.000000
0.000000
-0.000000
=======
-0.000000
-0.000000
0.000000
0.000000
>>>>>>> Stashed changes
0.000000
-0.000000
-0.000000
-0.000000
<<<<<<< Updated upstream
-0.000000
-0.000000
0.000000
-0.000000
0.000000
-0.000000
0.000000
-0.000000
=======
0.000000
0.000000
>>>>>>> Stashed changes
0.000000
-0.000000
-0.000000
-0.000000
<<<<<<< Updated upstream
-0.000000
-0.000000
-0.000000
-0.000000
-0.000000
0.000000
-0.000000
=======
0.000000
>>>>>>> Stashed changes
0.000000
0.000000
-0.000000
-0.000000
-0.000000
<<<<<<< Updated upstream
-0.000000
-0.000000
-0.000000
-0.000000
-0.000000
-0.000000
0.000000
-0.000000
0.000000
-0.000000
-0.000000
-0.000000
-0.000000
-0.000000
-0.000000
-0.000000
-0.000000
-0.000000
-0.000000
-0.000000
-0.000000
-0.000000
=======
0.000000
0.000000
>>>>>>> Stashed changes
0.000000
-0.000000
-0.000000
-0.000000
<<<<<<< Updated upstream
-0.000000
-0.000000
-0.000000
-0.000000
0.000000
-0.000000
0.000000
-0.000000
0.000000
-0.000000
=======
0.000000
0.000000
>>>>>>> Stashed changes
0.000000
-0.000000
-0.000000
-0.000000
-0.000000
-0.000000
-0.000000
-0.000000
-0.000000
-0.000000
-0.000000
-0.000000
-0.000000
-0.000000
-0.000000
-0.000000
-0.000000
-0.000000
-0.000000
-0.000000
-0.000000
-0.000000
-0.000000
-0.000000
-0.000000
<<<<<<< Updated upstream
0.000000
-0.000000
0.000000
-0.000000
0.000000
-0.000000
0.000000
-0.000000
0.000000
-0.000000
0.000000
-0.000000
0.000000
0.000000
0.000000
0.000000
0.000000
0.000000
0.000000
0.000000
0.000000
0.000000
0.000000
0.000000
-0.000000
-0.000000
-0.000000
-0.000000
-0.000000
-0.000000
-0.000000
-0.000000
-0.000000
-0.000000
-0.000000
-0.000000
-0.000000
=======
>>>>>>> Stashed changes
-0.000000
-0.000000
-0.000000
-0.000000
-0.000000
-0.000000
-0.000000
-0.000000
-0.000000
-0.000000
-0.000000
-0.000000
-0.000000
-0.000000
-0.000000
-0.000000
-0.000000
-0.000000
-0.000000
-0.000000
-0.000000
-0.000000
-0.000000
-0.000000
-0.000000
-0.000000
-0.000000
-0.000000
-0.000000
-0.000000
<<<<<<< Updated upstream
0.000000
=======
>>>>>>> Stashed changes
-0.000000
-0.000000
-0.000000
-0.000000
-0.000000
-0.000000
-0.000000
-0.000000
-0.000000
-0.000000
-0.000000
-0.000000
-0.000000
-0.000000
-0.000000
0.000000
-0.000000
-0.000000
-0.000000
-0.000000
-0.000000
-0.000000
-0.000000
-0.000000
-0.000000
<<<<<<< Updated upstream
-0.000000
-0.000000
-0.000000
-0.000000
-0.000000
-0.000000
-0.000000
-0.000000
-0.000000
-0.000000
-0.000000
-0.000000
-0.000000
-0.000000
-0.000000
-0.000000
0.000000
-0.000000
=======
0.000000
>>>>>>> Stashed changes
0.000000
-0.000000
-0.000000
-0.000000
-0.000000
-0.000000
0.000000
-0.000000
<<<<<<< Updated upstream
0.000000
-0.000000
-0.000000
-0.000000
-0.000000
-0.000000
-0.000000
-0.000000
-0.000000
-0.000000
-0.000000
-0.000000
-0.000000
-0.000000
=======
>>>>>>> Stashed changes
-0.000000
-0.000000
-0.000000
-0.000000
0.000000
-0.000000
<<<<<<< Updated upstream
0.000000
0.000000
0.000000
0.000000
0.000000
-0.000000
-0.000000
-0.000000
-0.000000
-0.000000
-0.000000
-0.000000
-0.000000
-0.000000
-0.000000
-0.000000
-0.000000
-0.000000
-0.000000
-0.000000
-0.000000
-0.000000
-0.000000
-0.000000
-0.000000
-0.000000
-0.000000
-0.000000
=======
>>>>>>> Stashed changes
-0.000000
-0.000000
-0.000000
-0.000000
0.000000
-0.000000
-0.000000
-0.000000
-0.000000
-0.000000
<<<<<<< Updated upstream
-0.000000
-0.000000
-0.000000
-0.000000
-0.000000
-0.000000
-0.000000
-0.000000
-0.000000
-0.000000
-0.000000
-0.000000
-0.000000
-0.000000
-0.000000
-0.000000
=======
>>>>>>> Stashed changes
0.000000
-0.000000
-0.000000
-0.000000
-0.000000
-0.000000
<<<<<<< Updated upstream
-0.000000
-0.000000
-0.000000
-0.000000
-0.000000
-0.000000
-0.000000
-0.000000
-0.000000
-0.000000
-0.000000
-0.000000
-0.000000
0.000000
-0.000000
=======
>>>>>>> Stashed changes
0.000000
-0.000000
-0.000000
-0.000000
-0.000000
<<<<<<< Updated upstream
-0.000000
-0.000000
-0.000000
-0.000000
-0.000000
-0.000000
-0.000000
0.000000
-0.000000
-0.000000
-0.000000
-0.000000
-0.000000
-0.000000
-0.000000
-0.000000
-0.000000
-0.000000
-0.000000
-0.000000
-0.000000
-0.000000
-0.000000
0.000000
0.000000
-0.000000
-0.000000
-0.000000
-0.000000
-0.000000
-0.000000
0.000000
-0.000000
-0.000000
-0.000000
-0.000000
-0.000000
-0.000000
-0.000000
-0.000000
-0.000000
-0.000000
-0.000000
-0.000000
-0.000000
-0.000000
-0.000000
-0.000000
-0.000000
-0.000000
-0.000000
-0.000000
-0.000000
-0.000000
-0.000000
-0.000000
-0.000000
-0.000000
-0.000000
-0.000000
-0.000000
-0.000000
0.000000
-0.000000
-0.000000
-0.000000
-0.000000
-0.000000
-0.000000
-0.000000
-0.000000
-0.000000
-0.000000
-0.000000
-0.000000
-0.000000
-0.000000
-0.000000
0.000000
-0.000000
0.000000
-0.000000
-0.000000
-0.000000
-0.000000
-0.000000
-0.000000
-0.000000
0.000000
0.000000
-0.000000
0.000000
-0.000000
-0.000000
-0.000000
-0.000000
-0.000000
-0.000000
-0.000000
-0.000000
-0.000000
-0.000000
-0.000000
-0.000000
-0.000000
0.000000
-0.000000
0.000000
-0.000000
-0.000000
-0.000000
-0.000000
-0.000000
-0.000000
-0.000000
-0.000000
-0.000000
-0.000000
-0.000000
-0.000000
-0.000000
-0.000000
-0.000000
-0.000000
-0.000000
-0.000000
-0.000000
-0.000000
-0.000000
-0.000000
-0.000000
-0.000000
-0.000000
-0.000000
-0.000000
-0.000000
-0.000000
-0.000000
-0.000000
-0.000000
-0.000000
-0.000000
-0.000000
-0.000000
-0.000000
-0.000000
-0.000000
-0.000000
-0.000000
0.000000
0.000000
0.000000
0.000000
-0.000000
-0.000000
-0.000000
-0.000000
-0.000000
0.000000
-0.000000
-0.000000
-0.000000
-0.000000
-0.000000
-0.000000
-0.000000
-0.000000
-0.000000
-0.000000
-0.000000
-0.000000
-0.000000
-0.000000
0.000000
-0.000000
-0.000000
-0.000000
-0.000000
-0.000000
-0.000000
-0.000000
-0.000000
-0.000000
-0.000000
-0.000000
-0.000000
-0.000000
-0.000000
-0.000000
-0.000000
-0.000000
-0.000000
-0.000000
-0.000000
0.000000
-0.000000
0.000000
-0.000000
-0.000000
-0.000000
-0.000000
-0.000000
-0.000000
-0.000000
-0.000000
-0.000000
-0.000000
-0.000000
-0.000000
-0.000000
0.000000
-0.000000
-0.000000
-0.000000
-0.000000
-0.000000
-0.000000
-0.000000
-0.000000
-0.000000
-0.000000
-0.000000
-0.000000
-0.000000
-0.000000
-0.000000
-0.000000
-0.000000
-0.000000
-0.000000
-0.000000
-0.000000
-0.000000
-0.000000
0.000000
-0.000000
0.000000
0.000000
-0.000000
-0.000000
-0.000000
-0.000000
0.000000
-0.000000
0.000000
-0.000000
-0.000000
-0.000000
-0.000000
-0.000000
-0.000000
-0.000000
-0.000000
-0.000000
-0.000000
-0.000000
-0.000000
0.000000
0.000000
0.000000
0.000000
-0.000000
-0.000000
-0.000000
-0.000000
0.000000
-0.000000
0.000000
-0.000000
-0.000000
-0.000000
-0.000000
-0.000000
-0.000000
0.000000
-0.000000
0.000000
-0.000000
-0.000000
-0.000000
-0.000000
-0.000000
-0.000000
-0.000000
-0.000000
-0.000000
-0.000000
-0.000000
-0.000000
-0.000000
-0.000000
-0.000000
-0.000000
-0.000000
-0.000000
-0.000000
-0.000000
-0.000000
-0.000000
-0.000000
-0.000000
0.000000
-0.000000
0.000000
-0.000000
0.000000
-0.000000
-0.000000
-0.000000
-0.000000
-0.000000
-0.000000
-0.000000
-0.000000
-0.000000
-0.000000
-0.000000
-0.000000
-0.000000
-0.000000
-0.000000
-0.000000
-0.000000
-0.000000
-0.000000
0.000000
-0.000000
0.000000
-0.000000
-0.000000
-0.000000
-0.000000
-0.000000
-0.000000
-0.000000
-0.000000
-0.000000
-0.000000
-0.000000
-0.000000
-0.000000
-0.000000
-0.000000
-0.000000
-0.000000
-0.000000
-0.000000
-0.000000
-0.000000
-0.000000
-0.000000
-0.000000
-0.000000
-0.000000
-0.000000
-0.000000
-0.000000
-0.000000
-0.000000
-0.000000
-0.000000
-0.000000
-0.000000
-0.000000
-0.000000
-0.000000
-0.000000
-0.000000
-0.000000
-0.000000
-0.000000
-0.000000
-0.000000
-0.000000
-0.000000
-0.000000
-0.000000
-0.000000
-0.000000
-0.000000
-0.000000
-0.000000
-0.000000
-0.000000
-0.000000
-0.000000
-0.000000
-0.000000
-0.000000
-0.000000
-0.000000
-0.000000
-0.000000
-0.000000
0.000000
-0.000000
0.000000
-0.000000
-0.000000
-0.000000
-0.000000
-0.000000
-0.000000
-0.000000
-0.000000
-0.000000
-0.000000
-0.000000
-0.000000
-0.000000
-0.000000
-0.000000
-0.000000
-0.000000
-0.000000
-0.000000
-0.000000
-0.000000
-0.000000
-0.000000
-0.000000
-0.000000
-0.000000
-0.000000
-0.000000
-0.000000
-0.000000
0.000000
-0.000000
-0.000000
-0.000000
-0.000000
-0.000000
-0.000000
-0.000000
-0.000000
-0.000000
-0.000000
-0.000000
-0.000000
-0.000000
-0.000000
-0.000000
-0.000000
-0.000000
-0.000000
-0.000000
-0.000000
-0.000000
-0.000000
-0.000000
-0.000000
-0.000000
-0.000000
-0.000000
-0.000000
-0.000000
-0.000000
-0.000000
-0.000000
-0.000000
-0.000000
-0.000000
-0.000000
-0.000000
-0.000000
-0.000000
-0.000000
-0.000000
-0.000000
-0.000000
-0.000000
-0.000000
-0.000000
-0.000000
-0.000000
-0.000000
-0.000000
-0.000000
-0.000000
-0.000000
-0.000000
-0.000000
-0.000000
-0.000000
-0.000000
-0.000000
-0.000000
-0.000000
-0.000000
-0.000000
-0.000000
-0.000000
-0.000000
-0.000000
-0.000000
-0.000000
-0.000000
-0.000000
-0.000000
-0.000000
-0.000000
-0.000000
-0.000000
-0.000000
-0.000000
-0.000000
-0.000000
-0.000000
-0.000000
-0.000000
-0.000000
-0.000000
-0.000000
-0.000000
-0.000000
-0.000000
-0.000000
-0.000000
-0.000000
-0.000000
-0.000000
-0.000000
-0.000000
-0.000000
-0.000000
-0.000000
-0.000000
-0.000000
-0.000000
-0.000000
-0.000000
-0.000000
0.000000
-0.000000
0.000000
-0.000000
0.000000
-0.000000
0.000000
-0.000000
0.000000
-0.000000
0.000000
-0.000000
-0.000000
-0.000000
-0.000000
-0.000000
0.000000
-0.000000
-0.000000
-0.000000
-0.000000
-0.000000
-0.000000
-0.000000
-0.000000
0.000000
-0.000000
0.000000
-0.000000
-0.000000
-0.000000
-0.000000
-0.000000
-0.000000
-0.000000
-0.000000
-0.000000
0.000000
-0.000000
0.000000
-0.000000
-0.000000
-0.000000
-0.000000
-0.000000
-0.000000
-0.000000
-0.000000
-0.000000
-0.000000
-0.000000
-0.000000
-0.000000
-0.000000
-0.000000
-0.000000
-0.000000
-0.000000
-0.000000
-0.000000
-0.000000
-0.000000
-0.000000
-0.000000
-0.000000
-0.000000
-0.000000
-0.000000
-0.000000
-0.000000
-0.000000
-0.000000
-0.000000
0.000000
-0.000000
0.000000
-0.000000
-0.000000
-0.000000
-0.000000
-0.000000
-0.000000
-0.000000
-0.000000
-0.000000
-0.000000
-0.000000
-0.000000
-0.000000
-0.000000
-0.000000
-0.000000
-0.000000
-0.000000
-0.000000
-0.000000
-0.000000
-0.000000
-0.000000
-0.000000
-0.000000
-0.000000
-0.000000
-0.000000
-0.000000
-0.000000
-0.000000
-0.000000
-0.000000
-0.000000
-0.000000
-0.000000
-0.000000
-0.000000
-0.000000
-0.000000
-0.000000
-0.000000
-0.000000
-0.000000
-0.000000
-0.000000
-0.000000
-0.000000
-0.000000
-0.000000
-0.000000
-0.000000
-0.000000
-0.000000
-0.000000
-0.000000
-0.000000
0.000000
-0.000000
-0.000000
-0.000000
-0.000000
-0.000000
-0.000000
-0.000000
-0.000000
-0.000000
-0.000000
-0.000000
-0.000000
-0.000000
-0.000000
-0.000000
-0.000000
-0.000000
-0.000000
-0.000000
-0.000000
-0.000000
-0.000000
-0.000000
-0.000000
-0.000000
-0.000000
0.000000
0.000000
0.000000
0.000000
-0.000000
-0.000000
-0.000000
-0.000000
-0.000000
-0.000000
-0.000000
-0.000000
-0.000000
-0.000000
-0.000000
0.000000
-0.000000
-0.000000
-0.000000
-0.000000
-0.000000
-0.000000
-0.000000
-0.000000
-0.000000
-0.000000
-0.000000
-0.000000
-0.000000
-0.000000
-0.000000
-0.000000
-0.000000
-0.000000
-0.000000
-0.000000
-0.000000
-0.000000
-0.000000
-0.000000
-0.000000