# vtk DataFile Version 2.0
MATLAB generated vtk file, WMC
ASCII
DATASET UNSTRUCTURED_GRID
<<<<<<< Updated upstream
POINTS 2048 double
0.024414 0.013373 0.000000 
0.024414 0.040119 0.000000 
0.073242 0.013373 0.000000 
0.073242 0.040119 0.000000 
0.024414 0.066870 0.000000 
0.024414 0.093635 0.000000 
0.073242 0.066870 0.000000 
0.073242 0.093635 0.000000 
0.024414 0.120411 0.000000 
0.024414 0.147196 0.000000 
0.073242 0.120411 0.000000 
0.073242 0.147196 0.000000 
0.024414 0.173990 0.000000 
0.024414 0.200796 0.000000 
0.073242 0.173990 0.000000 
0.073242 0.200796 0.000000 
0.024414 0.227610 0.000000 
0.024414 0.254433 0.000000 
0.073242 0.227610 0.000000 
0.073242 0.254433 0.000000 
0.024414 0.281268 0.000000 
0.024414 0.308113 0.000000 
0.073242 0.281268 0.000000 
0.073242 0.308113 0.000000 
0.024414 0.334967 0.000000 
0.024414 0.361832 0.000000 
0.073242 0.334967 0.000000 
0.073242 0.361832 0.000000 
0.024414 0.388706 0.000000 
0.024414 0.415590 0.000000 
0.073242 0.388706 0.000000 
0.073242 0.415590 0.000000 
0.024414 0.442484 0.000000 
0.024414 0.469387 0.000000 
0.073242 0.442484 0.000000 
0.073242 0.469387 0.000000 
0.024414 0.496301 0.000000 
0.024414 0.523226 0.000000 
0.073242 0.496301 0.000000 
0.073242 0.523226 0.000000 
0.024414 0.550160 0.000000 
0.024414 0.577103 0.000000 
0.073242 0.550160 0.000000 
0.073242 0.577103 0.000000 
0.024414 0.604057 0.000000 
0.024414 0.631021 0.000000 
0.073242 0.604057 0.000000 
0.073242 0.631021 0.000000 
0.024414 0.657995 0.000000 
0.024414 0.684980 0.000000 
0.073242 0.657995 0.000000 
0.073242 0.684980 0.000000 
0.024414 0.711974 0.000000 
0.024414 0.738980 0.000000 
0.073242 0.711974 0.000000 
0.073242 0.738980 0.000000 
0.024414 0.765993 0.000000 
0.024414 0.793017 0.000000 
0.073242 0.765993 0.000000 
0.073242 0.793017 0.000000 
0.024414 0.820051 0.000000 
0.024414 0.847096 0.000000 
0.073242 0.820051 0.000000 
0.073242 0.847096 0.000000 
0.024414 0.874150 0.000000 
0.024414 0.901216 0.000000 
0.073242 0.874150 0.000000 
0.073242 0.901216 0.000000 
0.024414 0.928292 0.000000 
0.024414 0.955377 0.000000 
0.073242 0.928292 0.000000 
0.073242 0.955377 0.000000 
0.024414 0.982473 0.000000 
0.024414 1.009576 0.000000 
0.073242 0.982473 0.000000 
0.073242 1.009576 0.000000 
0.024414 1.036692 0.000000 
0.024414 1.063818 0.000000 
0.073242 1.036692 0.000000 
0.073242 1.063818 0.000000 
0.024414 1.090955 0.000000 
0.024414 1.118102 0.000000 
0.073242 1.090955 0.000000 
0.073242 1.118102 0.000000 
0.024414 1.145258 0.000000 
0.024414 1.172425 0.000000 
0.073242 1.145258 0.000000 
0.073242 1.172425 0.000000 
0.024414 1.199602 0.000000 
0.024414 1.226787 0.000000 
0.073242 1.199602 0.000000 
0.073242 1.226787 0.000000 
0.024414 1.253986 0.000000 
0.024414 1.281193 0.000000 
0.073242 1.253986 0.000000 
0.073242 1.281193 0.000000 
0.024414 1.308411 0.000000 
0.024414 1.335640 0.000000 
0.073242 1.308411 0.000000 
0.073242 1.335640 0.000000 
0.024414 1.362877 0.000000 
0.024414 1.390128 0.000000 
0.073242 1.362877 0.000000 
0.073242 1.390128 0.000000 
0.024414 1.417386 0.000000 
0.024414 1.444656 0.000000 
0.073242 1.417386 0.000000 
0.073242 1.444656 0.000000 
0.024414 1.471938 0.000000 
0.024414 1.499228 0.000000 
0.073242 1.471938 0.000000 
0.073242 1.499228 0.000000 
0.024414 1.526527 0.000000 
0.024414 1.553840 0.000000 
0.073242 1.526527 0.000000 
0.073242 1.553840 0.000000 
0.024414 1.581160 0.000000 
0.024414 1.608492 0.000000 
0.073242 1.581160 0.000000 
0.073242 1.608492 0.000000 
0.024414 1.635834 0.000000 
0.024414 1.663185 0.000000 
0.073242 1.635834 0.000000 
0.073242 1.663185 0.000000 
0.024414 1.690549 0.000000 
0.024414 1.717923 0.000000 
0.073242 1.690549 0.000000 
0.073242 1.717923 0.000000 
0.024414 1.745307 0.000000 
0.024414 1.772700 0.000000 
0.073242 1.745307 0.000000 
0.073242 1.772700 0.000000 
0.024414 1.800107 0.000000 
0.024414 1.827522 0.000000 
0.073242 1.800107 0.000000 
0.073242 1.827522 0.000000 
0.024414 1.854948 0.000000 
0.024414 1.882384 0.000000 
0.073242 1.854948 0.000000 
0.073242 1.882384 0.000000 
0.024414 1.909829 0.000000 
0.024414 1.937289 0.000000 
0.073242 1.909829 0.000000 
0.073242 1.937289 0.000000 
0.024414 1.964757 0.000000 
0.024414 1.992235 0.000000 
0.073242 1.964757 0.000000 
0.073242 1.992235 0.000000 
0.024414 2.019724 0.000000 
0.024414 2.047224 0.000000 
0.073242 2.019724 0.000000 
0.073242 2.047224 0.000000 
0.024414 2.074733 0.000000 
0.024414 2.102253 0.000000 
0.073242 2.074733 0.000000 
0.073242 2.102253 0.000000 
0.024414 2.129786 0.000000 
0.024414 2.157329 0.000000 
0.073242 2.129786 0.000000 
0.073242 2.157329 0.000000 
0.024414 2.184880 0.000000 
0.024414 2.212445 0.000000 
0.073242 2.184880 0.000000 
0.073242 2.212445 0.000000 
0.024414 2.240017 0.000000 
0.024414 2.267601 0.000000 
0.073242 2.240017 0.000000 
0.073242 2.267601 0.000000 
0.024414 2.295197 0.000000 
0.024414 2.322803 0.000000 
0.073242 2.295197 0.000000 
0.073242 2.322803 0.000000 
0.024414 2.350419 0.000000 
0.024414 2.378046 0.000000 
0.073242 2.350419 0.000000 
0.073242 2.378046 0.000000 
0.024414 2.405685 0.000000 
0.024414 2.433333 0.000000 
0.073242 2.405685 0.000000 
0.073242 2.433333 0.000000 
0.024414 2.460992 0.000000 
0.024414 2.488663 0.000000 
0.073242 2.460992 0.000000 
0.073242 2.488663 0.000000 
0.024414 2.516343 0.000000 
0.024414 2.544034 0.000000 
0.073242 2.516343 0.000000 
0.073242 2.544034 0.000000 
0.024414 2.571738 0.000000 
0.024414 2.599450 0.000000 
0.073242 2.571738 0.000000 
0.073242 2.599450 0.000000 
0.024414 2.627173 0.000000 
0.024414 2.654909 0.000000 
0.073242 2.627173 0.000000 
0.073242 2.654909 0.000000 
0.024414 2.682653 0.000000 
0.024414 2.710411 0.000000 
0.073242 2.682653 0.000000 
0.073242 2.710411 0.000000 
0.024414 2.738177 0.000000 
0.024414 2.765956 0.000000 
0.073242 2.738177 0.000000 
0.073242 2.765956 0.000000 
0.024414 2.793745 0.000000 
0.024414 2.821544 0.000000 
0.073242 2.793745 0.000000 
0.073242 2.821544 0.000000 
0.024414 2.849356 0.000000 
0.024414 2.877176 0.000000 
0.073242 2.849356 0.000000 
0.073242 2.877176 0.000000 
0.024414 2.905008 0.000000 
0.024414 2.932852 0.000000 
0.073242 2.905008 0.000000 
0.073242 2.932852 0.000000 
0.024414 2.960706 0.000000 
0.024414 2.988571 0.000000 
0.073242 2.960706 0.000000 
0.073242 2.988571 0.000000 
0.024414 3.016447 0.000000 
0.024414 3.044334 0.000000 
0.073242 3.016447 0.000000 
0.073242 3.044334 0.000000 
0.024414 3.072233 0.000000 
0.024414 3.100143 0.000000 
0.073242 3.072233 0.000000 
0.073242 3.100143 0.000000 
0.024414 3.128063 0.000000 
0.024414 3.155994 0.000000 
0.073242 3.128063 0.000000 
0.073242 3.155994 0.000000 
0.024414 3.183936 0.000000 
0.024414 3.211888 0.000000 
0.073242 3.183936 0.000000 
0.073242 3.211888 0.000000 
0.024414 3.239854 0.000000 
0.024414 3.267827 0.000000 
0.073242 3.239854 0.000000 
0.073242 3.267827 0.000000 
0.024414 3.295813 0.000000 
0.024414 3.323812 0.000000 
0.073242 3.295813 0.000000 
0.073242 3.323812 0.000000 
0.024414 3.351820 0.000000 
0.024414 3.379840 0.000000 
0.073242 3.351820 0.000000 
0.073242 3.379840 0.000000 
0.024414 3.407871 0.000000 
0.024414 3.435913 0.000000 
0.073242 3.407871 0.000000 
0.073242 3.435913 0.000000 
0.024414 3.463965 0.000000 
0.024414 3.492028 0.000000 
0.073242 3.463965 0.000000 
0.073242 3.492028 0.000000 
0.024414 3.520103 0.000000 
0.024414 3.548191 0.000000 
0.073242 3.520103 0.000000 
0.073242 3.548191 0.000000 
0.024414 3.576289 0.000000 
0.024414 3.604397 0.000000 
0.073242 3.576289 0.000000 
0.073242 3.604397 0.000000 
0.024414 3.632517 0.000000 
0.024414 3.660649 0.000000 
0.073242 3.632517 0.000000 
0.073242 3.660649 0.000000 
0.024414 3.688791 0.000000 
0.024414 3.716945 0.000000 
0.073242 3.688791 0.000000 
0.073242 3.716945 0.000000 
0.024414 3.745111 0.000000 
0.024414 3.773284 0.000000 
0.073242 3.745111 0.000000 
0.073242 3.773284 0.000000 
0.024414 3.801474 0.000000 
0.024414 3.829672 0.000000 
0.073242 3.801474 0.000000 
0.073242 3.829672 0.000000 
0.024414 3.857881 0.000000 
0.024414 3.886104 0.000000 
0.073242 3.857881 0.000000 
0.073242 3.886104 0.000000 
0.024414 3.914335 0.000000 
0.024414 3.942579 0.000000 
0.073242 3.914335 0.000000 
0.073242 3.942579 0.000000 
0.024414 3.970835 0.000000 
0.024414 3.999101 0.000000 
0.073242 3.970835 0.000000 
0.073242 3.999101 0.000000 
0.024414 4.027380 0.000000 
0.024414 4.055669 0.000000 
0.073242 4.027380 0.000000 
0.073242 4.055669 0.000000 
0.024414 4.083970 0.000000 
0.024414 4.112282 0.000000 
0.073242 4.083970 0.000000 
0.073242 4.112282 0.000000 
0.024414 4.140605 0.000000 
0.024414 4.168942 0.000000 
0.073242 4.140605 0.000000 
0.073242 4.168942 0.000000 
0.024414 4.197287 0.000000 
0.024414 4.225646 0.000000 
0.073242 4.197287 0.000000 
0.073242 4.225646 0.000000 
0.024414 4.254015 0.000000 
0.024414 4.282396 0.000000 
0.073242 4.254015 0.000000 
0.073242 4.282396 0.000000 
0.024414 4.310789 0.000000 
0.024414 4.339192 0.000000 
0.073242 4.310789 0.000000 
0.073242 4.339192 0.000000 
0.024414 4.367607 0.000000 
0.024414 4.396036 0.000000 
0.073242 4.367607 0.000000 
0.073242 4.396036 0.000000 
0.024414 4.424475 0.000000 
0.024414 4.452923 0.000000 
0.073242 4.424475 0.000000 
0.073242 4.452923 0.000000 
0.024414 4.481387 0.000000 
0.024414 4.509860 0.000000 
0.073242 4.481387 0.000000 
0.073242 4.509860 0.000000 
0.024414 4.538344 0.000000 
0.024414 4.566841 0.000000 
0.073242 4.538344 0.000000 
0.073242 4.566841 0.000000 
0.024414 4.595349 0.000000 
0.024414 4.623867 0.000000 
0.073242 4.595349 0.000000 
0.073242 4.623867 0.000000 
0.024414 4.652399 0.000000 
0.024414 4.680942 0.000000 
0.073242 4.652399 0.000000 
0.073242 4.680942 0.000000 
0.024414 4.709497 0.000000 
0.024414 4.738063 0.000000 
0.073242 4.709497 0.000000 
0.073242 4.738063 0.000000 
0.024414 4.766644 0.000000 
0.024414 4.795233 0.000000 
0.073242 4.766644 0.000000 
0.073242 4.795233 0.000000 
0.024414 4.823833 0.000000 
0.024414 4.852447 0.000000 
0.073242 4.823833 0.000000 
0.073242 4.852447 0.000000 
[...]
POINT_DATA 2048
=======
POINTS 288 double
0.520833 0.292520 0.000000 
0.520833 0.877560 0.000000 
0.520833 1.462599 0.000000 
0.520833 2.047639 0.000000 
0.520833 2.632679 0.000000 
0.520833 3.217718 0.000000 
1.562500 0.292520 0.000000 
1.562500 0.877560 0.000000 
1.562500 1.462599 0.000000 
1.562500 2.047639 0.000000 
1.562500 2.632679 0.000000 
1.562500 3.217718 0.000000 
2.604167 0.292520 0.000000 
2.604167 0.877560 0.000000 
2.604167 1.462599 0.000000 
2.604167 2.047639 0.000000 
2.604167 2.632679 0.000000 
2.604167 3.217718 0.000000 
3.645833 0.292520 0.000000 
3.645833 0.877560 0.000000 
3.645833 1.462599 0.000000 
3.645833 2.047639 0.000000 
3.645833 2.632679 0.000000 
3.645833 3.217718 0.000000 
4.687500 0.292520 0.000000 
4.687500 0.877560 0.000000 
4.687500 1.462599 0.000000 
4.687500 2.047639 0.000000 
4.687500 2.632679 0.000000 
4.687500 3.217718 0.000000 
5.729167 0.292520 0.000000 
5.729167 0.877560 0.000000 
5.729167 1.462599 0.000000 
5.729167 2.047639 0.000000 
5.729167 2.632679 0.000000 
5.729167 3.217718 0.000000 
0.520833 3.806514 0.000000 
0.520833 4.405289 0.000000 
0.520833 5.013400 0.000000 
0.520833 5.630393 0.000000 
0.520833 6.255205 0.000000 
0.520833 6.882754 0.000000 
1.562500 3.806514 0.000000 
1.562500 4.405289 0.000000 
1.562500 5.013400 0.000000 
1.562500 5.630393 0.000000 
1.562500 6.255205 0.000000 
1.562500 6.882754 0.000000 
2.604167 3.806514 0.000000 
2.604167 4.405289 0.000000 
2.604167 5.013400 0.000000 
2.604167 5.630393 0.000000 
2.604167 6.255205 0.000000 
2.604167 6.882754 0.000000 
3.645833 3.806514 0.000000 
3.645833 4.405289 0.000000 
3.645833 5.013400 0.000000 
3.645833 5.630393 0.000000 
3.645833 6.255205 0.000000 
3.645833 6.882754 0.000000 
4.687500 3.806514 0.000000 
4.687500 4.405289 0.000000 
4.687500 5.013400 0.000000 
4.687500 5.630393 0.000000 
4.687500 6.255205 0.000000 
4.687500 6.882754 0.000000 
5.729167 3.806514 0.000000 
5.729167 4.405289 0.000000 
5.729167 5.013400 0.000000 
5.729167 5.630393 0.000000 
5.729167 6.255205 0.000000 
5.729167 6.882754 0.000000 
0.520833 7.513772 0.000000 
0.520833 8.151015 0.000000 
0.520833 8.794350 0.000000 
0.520833 9.443713 0.000000 
0.520833 10.098902 0.000000 
0.520833 10.759319 0.000000 
1.562500 7.513772 0.000000 
1.562500 8.151015 0.000000 
1.562500 8.794350 0.000000 
1.562500 9.443713 0.000000 
1.562500 10.098902 0.000000 
1.562500 10.759319 0.000000 
2.604167 7.513772 0.000000 
2.604167 8.151015 0.000000 
2.604167 8.794350 0.000000 
2.604167 9.443713 0.000000 
2.604167 10.098902 0.000000 
2.604167 10.759319 0.000000 
3.645833 7.513772 0.000000 
3.645833 8.151015 0.000000 
3.645833 8.794350 0.000000 
3.645833 9.443713 0.000000 
3.645833 10.098902 0.000000 
3.645833 10.759319 0.000000 
4.687500 7.513772 0.000000 
4.687500 8.151015 0.000000 
4.687500 8.794350 0.000000 
4.687500 9.443713 0.000000 
4.687500 10.098902 0.000000 
4.687500 10.759319 0.000000 
5.729167 7.513772 0.000000 
5.729167 8.151015 0.000000 
5.729167 8.794350 0.000000 
5.729167 9.443713 0.000000 
5.729167 10.098902 0.000000 
5.729167 10.759319 0.000000 
0.520833 11.427973 0.000000 
0.520833 12.106404 0.000000 
0.520833 12.794096 0.000000 
0.520833 13.487190 0.000000 
0.520833 14.185105 0.000000 
0.520833 14.887960 0.000000 
1.562500 11.427973 0.000000 
1.562500 12.106404 0.000000 
1.562500 12.794096 0.000000 
1.562500 13.487190 0.000000 
1.562500 14.185105 0.000000 
1.562500 14.887960 0.000000 
2.604167 11.427973 0.000000 
2.604167 12.106404 0.000000 
2.604167 12.794096 0.000000 
2.604167 13.487190 0.000000 
2.604167 14.185105 0.000000 
2.604167 14.887960 0.000000 
3.645833 11.427973 0.000000 
3.645833 12.106404 0.000000 
3.645833 12.794096 0.000000 
3.645833 13.487190 0.000000 
3.645833 14.185105 0.000000 
3.645833 14.887960 0.000000 
4.687500 11.427973 0.000000 
4.687500 12.106404 0.000000 
4.687500 12.794096 0.000000 
4.687500 13.487190 0.000000 
4.687500 14.185105 0.000000 
4.687500 14.887960 0.000000 
5.729167 11.427973 0.000000 
5.729167 12.106404 0.000000 
5.729167 12.794096 0.000000 
5.729167 13.487190 0.000000 
5.729167 14.185105 0.000000 
5.729167 14.887960 0.000000 
0.520833 15.599384 0.000000 
0.520833 16.320388 0.000000 
0.520833 17.052299 0.000000 
0.520833 17.793839 0.000000 
0.520833 18.545987 0.000000 
0.520833 19.305827 0.000000 
1.562500 15.599384 0.000000 
1.562500 16.320388 0.000000 
1.562500 17.052299 0.000000 
1.562500 17.793839 0.000000 
1.562500 18.545987 0.000000 
1.562500 19.305827 0.000000 
2.604167 15.599384 0.000000 
2.604167 16.320388 0.000000 
2.604167 17.052299 0.000000 
2.604167 17.793839 0.000000 
2.604167 18.545987 0.000000 
2.604167 19.305827 0.000000 
3.645833 15.599384 0.000000 
3.645833 16.320388 0.000000 
3.645833 17.052299 0.000000 
3.645833 17.793839 0.000000 
3.645833 18.545987 0.000000 
3.645833 19.305827 0.000000 
4.687500 15.599384 0.000000 
4.687500 16.320388 0.000000 
4.687500 17.052299 0.000000 
4.687500 17.793839 0.000000 
4.687500 18.545987 0.000000 
4.687500 19.305827 0.000000 
5.729167 15.599384 0.000000 
5.729167 16.320388 0.000000 
5.729167 17.052299 0.000000 
5.729167 17.793839 0.000000 
5.729167 18.545987 0.000000 
5.729167 19.305827 0.000000 
0.520833 20.074582 0.000000 
0.520833 20.852998 0.000000 
0.520833 21.641784 0.000000 
0.520833 22.440406 0.000000 
0.520833 23.251546 0.000000 
0.520833 24.073204 0.000000 
1.562500 20.074582 0.000000 
1.562500 20.852998 0.000000 
1.562500 21.641784 0.000000 
1.562500 22.440406 0.000000 
1.562500 23.251546 0.000000 
1.562500 24.073204 0.000000 
2.604167 20.074582 0.000000 
2.604167 20.852998 0.000000 
2.604167 21.641784 0.000000 
2.604167 22.440406 0.000000 
2.604167 23.251546 0.000000 
2.604167 24.073204 0.000000 
3.645833 20.074582 0.000000 
3.645833 20.852998 0.000000 
3.645833 21.641784 0.000000 
3.645833 22.440406 0.000000 
3.645833 23.251546 0.000000 
3.645833 24.073204 0.000000 
4.687500 20.074582 0.000000 
4.687500 20.852998 0.000000 
4.687500 21.641784 0.000000 
4.687500 22.440406 0.000000 
4.687500 23.251546 0.000000 
4.687500 24.073204 0.000000 
5.729167 20.074582 0.000000 
5.729167 20.852998 0.000000 
5.729167 21.641784 0.000000 
5.729167 22.440406 0.000000 
5.729167 23.251546 0.000000 
5.729167 24.073204 0.000000 
0.520833 24.911275 0.000000 
0.520833 25.762851 0.000000 
0.520833 26.624932 0.000000 
0.520833 27.499565 0.000000 
0.520833 28.387350 0.000000 
0.520833 29.288387 0.000000 
1.562500 24.911275 0.000000 
1.562500 25.762851 0.000000 
1.562500 26.624932 0.000000 
1.562500 27.499565 0.000000 
1.562500 28.387350 0.000000 
1.562500 29.288387 0.000000 
2.604167 24.911275 0.000000 
2.604167 25.762851 0.000000 
2.604167 26.624932 0.000000 
2.604167 27.499565 0.000000 
2.604167 28.387350 0.000000 
2.604167 29.288387 0.000000 
3.645833 24.911275 0.000000 
3.645833 25.762851 0.000000 
3.645833 26.624932 0.000000 
3.645833 27.499565 0.000000 
3.645833 28.387350 0.000000 
3.645833 29.288387 0.000000 
4.687500 24.911275 0.000000 
4.687500 25.762851 0.000000 
4.687500 26.624932 0.000000 
4.687500 27.499565 0.000000 
4.687500 28.387350 0.000000 
4.687500 29.288387 0.000000 
5.729167 24.911275 0.000000 
5.729167 25.762851 0.000000 
5.729167 26.624932 0.000000 
5.729167 27.499565 0.000000 
5.729167 28.387350 0.000000 
5.729167 29.288387 0.000000 
0.520833 30.211395 0.000000 
0.520833 31.157544 0.000000 
0.520833 32.118736 0.000000 
0.520833 33.096638 0.000000 
0.520833 34.089531 0.000000 
0.520833 35.100398 0.000000 
1.562500 30.211395 0.000000 
1.562500 31.157544 0.000000 
1.562500 32.118736 0.000000 
1.562500 33.096638 0.000000 
1.562500 34.089531 0.000000 
1.562500 35.100398 0.000000 
2.604167 30.211395 0.000000 
2.604167 31.157544 0.000000 
2.604167 32.118736 0.000000 
2.604167 33.096638 0.000000 
2.604167 34.089531 0.000000 
2.604167 35.100398 0.000000 
3.645833 30.211395 0.000000 
3.645833 31.157544 0.000000 
3.645833 32.118736 0.000000 
3.645833 33.096638 0.000000 
3.645833 34.089531 0.000000 
3.645833 35.100398 0.000000 
4.687500 30.211395 0.000000 
4.687500 31.157544 0.000000 
4.687500 32.118736 0.000000 
4.687500 33.096638 0.000000 
4.687500 34.089531 0.000000 
4.687500 35.100398 0.000000 
5.729167 30.211395 0.000000 
5.729167 31.157544 0.000000 
5.729167 32.118736 0.000000 
5.729167 33.096638 0.000000 
5.729167 34.089531 0.000000 
5.729167 35.100398 0.000000 

POINT_DATA 288
>>>>>>> Stashed changes
SCALARS sigma_xx FLOAT 1
LOOKUP_TABLE default
0.000000
0.000000
<<<<<<< Updated upstream
0.000000
0.000000
0.000000
-0.000000
0.000000
-0.000000
0.000000
-0.000000
0.000000
-0.000000
0.000000
0.000000
0.000000
0.000000
0.000000
0.000000
0.000000
0.000000
0.000000
0.000000
0.000000
0.000000
-0.000000
-0.000000
-0.000000
-0.000000
-0.000000
-0.000000
-0.000000
-0.000000
-0.000000
-0.000000
-0.000000
-0.000000
0.000000
-0.000000
-0.000000
-0.000000
-0.000000
-0.000000
-0.000000
-0.000000
-0.000000
-0.000000
-0.000000
-0.000000
-0.000000
-0.000000
-0.000000
-0.000000
0.000000
0.000000
0.000000
0.000000
0.000000
-0.000000
0.000000
-0.000000
0.000000
-0.000000
0.000000
-0.000000
-0.000000
-0.000000
-0.000000
0.000000
0.000000
0.000000
0.000000
-0.000000
-0.000000
0.000000
-0.000000
-0.000000
0.000000
0.000000
0.000000
0.000000
0.000000
0.000000
0.000000
0.000000
0.000000
-0.000000
0.000000
-0.000000
-0.000000
0.000000
-0.000000
0.000000
-0.000000
-0.000000
-0.000000
-0.000000
-0.000000
-0.000000
-0.000000
-0.000000
-0.000000
0.000000
-0.000000
0.000000
0.000000
-0.000000
0.000000
-0.000000
-0.000000
-0.000000
-0.000000
-0.000000
-0.000000
-0.000000
-0.000000
-0.000000
-0.000000
0.000000
-0.000000
0.000000
-0.000000
-0.000000
-0.000000
-0.000000
-0.000000
-0.000000
-0.000000
-0.000000
-0.000000
-0.000000
-0.000000
-0.000000
-0.000000
0.000000
-0.000000
0.000000
0.000000
-0.000000
0.000000
-0.000000
-0.000000
-0.000000
-0.000000
-0.000000
-0.000000
-0.000000
-0.000000
-0.000000
0.000000
-0.000000
=======
-0.000000
-0.000000
0.000000
-0.000000
0.000000
>>>>>>> Stashed changes
0.000000
-0.000000
0.000000
0.000000
0.000000
0.000000
0.000000
<<<<<<< Updated upstream
0.000000
0.000000
0.000000
0.000000
0.000000
0.000000
0.000000
0.000000
-0.000000
0.000000
-0.000000
0.000000
-0.000000
0.000000
-0.000000
0.000000
-0.000000
0.000000
-0.000000
-0.000000
-0.000000
-0.000000
-0.000000
-0.000000
-0.000000
-0.000000
-0.000000
-0.000000
-0.000000
-0.000000
-0.000000
-0.000000
-0.000000
-0.000000
-0.000000
-0.000000
-0.000000
-0.000000
-0.000000
-0.000000
-0.000000
-0.000000
-0.000000
-0.000000
-0.000000
-0.000000
-0.000000
-0.000000
-0.000000
-0.000000
-0.000000
-0.000000
0.000000
-0.000000
-0.000000
-0.000000
0.000000
-0.000000
0.000000
-0.000000
-0.000000
-0.000000
-0.000000
0.000000
-0.000000
0.000000
-0.000000
-0.000000
-0.000000
-0.000000
-0.000000
-0.000000
-0.000000
-0.000000
-0.000000
-0.000000
-0.000000
-0.000000
-0.000000
-0.000000
-0.000000
-0.000000
-0.000000
-0.000000
-0.000000
-0.000000
-0.000000
0.000000
-0.000000
0.000000
-0.000000
-0.000000
-0.000000
-0.000000
-0.000000
-0.000000
-0.000000
-0.000000
-0.000000
-0.000000
-0.000000
-0.000000
-0.000000
-0.000000
-0.000000
-0.000000
-0.000000
-0.000000
=======
-0.000000
0.000000
0.000000
0.000000
0.000000
0.000000
-0.000000
0.000000
0.000000
0.000000
0.000000
>>>>>>> Stashed changes
0.000000
-0.000000
0.000000
0.000000
<<<<<<< Updated upstream
-0.000000
0.000000
-0.000000
-0.000000
0.000000
-0.000000
0.000000
-0.000000
-0.000000
-0.000000
-0.000000
=======
0.000000
0.000000
0.000000
-0.000000
>>>>>>> Stashed changes
0.000000
-0.000000
0.000000
-0.000000
-0.000000
<<<<<<< Updated upstream
-0.000000
-0.000000
-0.000000
-0.000000
-0.000000
-0.000000
-0.000000
-0.000000
-0.000000
-0.000000
-0.000000
-0.000000
-0.000000
-0.000000
-0.000000
-0.000000
-0.000000
-0.000000
-0.000000
-0.000000
-0.000000
-0.000000
-0.000000
-0.000000
-0.000000
-0.000000
-0.000000
-0.000000
-0.000000
-0.000000
-0.000000
-0.000000
0.000000
-0.000000
-0.000000
-0.000000
-0.000000
-0.000000
-0.000000
-0.000000
-0.000000
-0.000000
-0.000000
-0.000000
-0.000000
-0.000000
-0.000000
-0.000000
0.000000
-0.000000
-0.000000
-0.000000
-0.000000
-0.000000
-0.000000
-0.000000
-0.000000
-0.000000
-0.000000
-0.000000
-0.000000
-0.000000
-0.000000
-0.000000
-0.000000
-0.000000
-0.000000
0.000000
-0.000000
0.000000
-0.000000
-0.000000
-0.000000
-0.000000
-0.000000
-0.000000
-0.000000
-0.000000
-0.000000
-0.000000
-0.000000
-0.000000
-0.000000
-0.000000
-0.000000
-0.000000
-0.000000
-0.000000
0.000000
-0.000000
-0.000000
-0.000000
-0.000000
-0.000000
-0.000000
-0.000000
-0.000000
0.000000
0.000000
-0.000000
-0.000000
-0.000000
-0.000000
-0.000000
0.000000
-0.000000
-0.000000
-0.000000
-0.000000
-0.000000
-0.000000
-0.000000
-0.000000
-0.000000
-0.000000
-0.000000
-0.000000
-0.000000
-0.000000
-0.000000
-0.000000
-0.000000
-0.000000
-0.000000
-0.000000
-0.000000
-0.000000
-0.000000
-0.000000
-0.000000
-0.000000
-0.000000
-0.000000
-0.000000
-0.000000
-0.000000
-0.000000
-0.000000
-0.000000
-0.000000
-0.000000
-0.000000
-0.000000
-0.000000
-0.000000
-0.000000
-0.000000
-0.000000
-0.000000
-0.000000
-0.000000
-0.000000
-0.000000
-0.000000
-0.000000
-0.000000
-0.000000
-0.000000
0.000000
-0.000000
-0.000000
-0.000000
-0.000000
-0.000000
-0.000000
-0.000000
-0.000000
-0.000000
-0.000000
-0.000000
-0.000000
-0.000000
-0.000000
-0.000000
-0.000000
-0.000000
-0.000000
-0.000000
-0.000000
-0.000000
-0.000000
-0.000000
-0.000000
-0.000000
-0.000000
-0.000000
-0.000000
-0.000000
-0.000000
-0.000000
-0.000000
-0.000000
-0.000000
-0.000000
-0.000000
-0.000000
-0.000000
-0.000000
-0.000000
-0.000000
-0.000000
-0.000000
-0.000000
-0.000000
-0.000000
-0.000000
-0.000000
-0.000000
-0.000000
-0.000000
-0.000000
-0.000000
-0.000000
-0.000000
-0.000000
-0.000000
-0.000000
-0.000000
-0.000000
-0.000000
-0.000000
-0.000000
-0.000000
-0.000000
-0.000000
-0.000000
-0.000000
-0.000000
-0.000000
-0.000000
-0.000000
-0.000000
-0.000000
-0.000000
-0.000000
-0.000000
-0.000000
-0.000000
-0.000000
-0.000000
-0.000000
-0.000000
-0.000000
-0.000000
-0.000000
-0.000000
-0.000000
-0.000000
-0.000000
-0.000000
-0.000000
-0.000000
-0.000000
-0.000000
-0.000000
-0.000000
-0.000000
-0.000000
-0.000000
-0.000000
-0.000000
-0.000000
-0.000000
-0.000000
-0.000000
-0.000000
-0.000000
-0.000000
-0.000000
-0.000000
-0.000000
-0.000000
-0.000000
-0.000000
-0.000000
-0.000000
-0.000000
-0.000000
-0.000000
-0.000000
-0.000000
-0.000000
-0.000000
-0.000000
-0.000000
-0.000000
-0.000000
-0.000000
-0.000000
-0.000000
-0.000000
-0.000000
-0.000000
-0.000000
-0.000000
-0.000000
0.000000
-0.000000
0.000000
-0.000000
-0.000000
-0.000000
0.000000
-0.000000
-0.000000
-0.000000
-0.000000
-0.000000
-0.000000
-0.000000
-0.000000
-0.000000
-0.000000
-0.000000
-0.000000
-0.000000
-0.000000
-0.000000
-0.000000
-0.000000
-0.000000
-0.000000
-0.000000
-0.000000
-0.000000
-0.000000
-0.000000
-0.000000
-0.000000
-0.000000
-0.000000
0.000000
0.000000
0.000000
0.000000
-0.000000
-0.000000
0.000000
-0.000000
-0.000000
-0.000000
-0.000000
-0.000000
-0.000000
-0.000000
-0.000000
-0.000000
-0.000000
-0.000000
-0.000000
-0.000000
-0.000000
-0.000000
-0.000000
-0.000000
-0.000000
-0.000000
-0.000000
-0.000000
-0.000000
-0.000000
-0.000000
-0.000000
-0.000000
-0.000000
-0.000000
-0.000000
-0.000000
0.000000
-0.000000
0.000000
-0.000000
0.000000
-0.000000
0.000000
-0.000000
-0.000000
-0.000000
-0.000000
-0.000000
-0.000000
-0.000000
-0.000000
-0.000000
0.000000
-0.000000
-0.000000
-0.000000
-0.000000
0.000000
-0.000000
-0.000000
-0.000000
-0.000000
-0.000000
0.000000
-0.000000
0.000000
-0.000000
-0.000000
-0.000000
-0.000000
-0.000000
-0.000000
-0.000000
-0.000000
-0.000000
-0.000000
-0.000000
-0.000000
-0.000000
-0.000000
-0.000000
-0.000000
-0.000000
-0.000000
-0.000000
-0.000000
-0.000000
-0.000000
-0.000000
-0.000000
-0.000000
-0.000000
-0.000000
-0.000000
0.000000
-0.000000
-0.000000
-0.000000
-0.000000
-0.000000
-0.000000
-0.000000
-0.000000
-0.000000
-0.000000
-0.000000
-0.000000
-0.000000
-0.000000
-0.000000
-0.000000
-0.000000
-0.000000
-0.000000
-0.000000
-0.000000
-0.000000
-0.000000
-0.000000
-0.000000
-0.000000
-0.000000
-0.000000
0.000000
-0.000000
0.000000
-0.000000
-0.000000
-0.000000
-0.000000
-0.000000
-0.000000
-0.000000
-0.000000
-0.000000
0.000000
-0.000000
0.000000
-0.000000
-0.000000
-0.000000
-0.000000
-0.000000
-0.000000
0.000000
-0.000000
-0.000000
-0.000000
-0.000000
-0.000000
-0.000000
-0.000000
-0.000000
-0.000000
-0.000000
-0.000000
-0.000000
-0.000000
-0.000000
-0.000000
-0.000000
-0.000000
-0.000000
-0.000000
-0.000000
-0.000000
-0.000000
-0.000000
-0.000000
0.000000
-0.000000
-0.000000
-0.000000
-0.000000
-0.000000
-0.000000
-0.000000
-0.000000
-0.000000
-0.000000
-0.000000
-0.000000
-0.000000
-0.000000
-0.000000
-0.000000
-0.000000
-0.000000
-0.000000
-0.000000
-0.000000
-0.000000
-0.000000
-0.000000
-0.000000
-0.000000
-0.000000
-0.000000
-0.000000
-0.000000
-0.000000
-0.000000
-0.000000
-0.000000
-0.000000
-0.000000
-0.000000
-0.000000
-0.000000
-0.000000
-0.000000
-0.000000
-0.000000
-0.000000
-0.000000
-0.000000
-0.000000
-0.000000
-0.000000
-0.000000
-0.000000
-0.000000
-0.000000
-0.000000
-0.000000
-0.000000
-0.000000
-0.000000
-0.000000
-0.000000
-0.000000
-0.000000
-0.000000
-0.000000
-0.000000
-0.000000
-0.000000
-0.000000
-0.000000
-0.000000
-0.000000
-0.000000
-0.000000
-0.000000
-0.000000
-0.000000
-0.000000
-0.000000
-0.000000
-0.000000
-0.000000
-0.000000
-0.000000
-0.000000
-0.000000
-0.000000
-0.000000
-0.000000
-0.000000
-0.000000
-0.000000
-0.000000
-0.000000
-0.000000
-0.000000
-0.000000
-0.000000
-0.000000
-0.000000
-0.000000
-0.000000
-0.000000
-0.000000
-0.000000
-0.000000
0.000000
-0.000000
0.000000
-0.000000
0.000000
-0.000000
0.000000
-0.000000
-0.000000
-0.000000
-0.000000
-0.000000
-0.000000
-0.000000
-0.000000
-0.000000
0.000000
-0.000000
-0.000000
-0.000000
-0.000000
-0.000000
-0.000000
-0.000000
-0.000000
-0.000000
-0.000000
-0.000000
-0.000000
-0.000000
-0.000000
-0.000000
-0.000000
-0.000000
-0.000000
-0.000000
-0.000000
0.000000
-0.000000
0.000000
-0.000000
-0.000000
-0.000000
-0.000000
-0.000000
-0.000000
-0.000000
-0.000000
-0.000000
-0.000000
-0.000000
-0.000000
-0.000000
-0.000000
-0.000000
-0.000000
-0.000000
-0.000000
-0.000000
-0.000000
-0.000000
-0.000000
-0.000000
-0.000000
-0.000000
-0.000000
-0.000000
-0.000000
-0.000000
0.000000
-0.000000
-0.000000
-0.000000
-0.000000
-0.000000
-0.000000
-0.000000
-0.000000
-0.000000
-0.000000
-0.000000
-0.000000
-0.000000
-0.000000
-0.000000
-0.000000
-0.000000
-0.000000
-0.000000
-0.000000
-0.000000
-0.000000
-0.000000
-0.000000
-0.000000
-0.000000
-0.000000
-0.000000
-0.000000
-0.000000
-0.000000
-0.000000
-0.000000
-0.000000
-0.000000
-0.000000
-0.000000
-0.000000
-0.000000
-0.000000
-0.000000
-0.000000
-0.000000
-0.000000
0.000000
-0.000000
0.000000
-0.000000
0.000000
-0.000000
-0.000000
-0.000000
-0.000000
-0.000000
-0.000000
-0.000000
-0.000000
-0.000000
-0.000000
-0.000000
-0.000000
-0.000000
-0.000000
-0.000000
-0.000000
-0.000000
-0.000000
-0.000000
-0.000000
-0.000000
-0.000000
-0.000000
-0.000000
-0.000000
-0.000000
-0.000000
0.000000
-0.000000
-0.000000
-0.000000
-0.000000
-0.000000
-0.000000
-0.000000
-0.000000
-0.000000
-0.000000
-0.000000
-0.000000
-0.000000
0.000000
-0.000000
0.000000
-0.000000
-0.000000
-0.000000
-0.000000
-0.000000
-0.000000
-0.000000
-0.000000
-0.000000
0.000000
-0.000000
0.000000
0.000000
-0.000000
-0.000000
-0.000000
-0.000000
-0.000000
-0.000000
-0.000000
-0.000000
-0.000000
-0.000000
-0.000000
-0.000000
-0.000000
0.000000
-0.000000
-0.000000
-0.000000
-0.000000
-0.000000
-0.000000
-0.000000
-0.000000
-0.000000
-0.000000
-0.000000
-0.000000
-0.000000
-0.000000
-0.000000
-0.000000
-0.000000
-0.000000
-0.000000
-0.000000
-0.000000
-0.000000
-0.000000
-0.000000
-0.000000
-0.000000
-0.000000
-0.000000
-0.000000
-0.000000
-0.000000
-0.000000
-0.000000
-0.000000
-0.000000
-0.000000
-0.000000
-0.000000
-0.000000
0.000000
-0.000000
0.000000
-0.000000
-0.000000
-0.000000
-0.000000
-0.000000
-0.000000
-0.000000
-0.000000
-0.000000
-0.000000
-0.000000
-0.000000
-0.000000