# vtk DataFile Version 2.0
MATLAB generated vtk file, WMC
ASCII
DATASET UNSTRUCTURED_GRID
<<<<<<< Updated upstream
POINTS 2048 double
0.024414 0.007890 0.000000 
0.024414 0.023669 0.000000 
0.073242 0.007890 0.000000 
0.073242 0.023669 0.000000 
0.024414 0.039451 0.000000 
0.024414 0.055242 0.000000 
0.073242 0.039451 0.000000 
0.073242 0.055242 0.000000 
0.024414 0.071041 0.000000 
0.024414 0.086851 0.000000 
0.073242 0.071041 0.000000 
0.073242 0.086851 0.000000 
0.024414 0.102670 0.000000 
0.024414 0.118496 0.000000 
0.073242 0.102670 0.000000 
0.073242 0.118496 0.000000 
0.024414 0.134330 0.000000 
0.024414 0.150172 0.000000 
0.073242 0.134330 0.000000 
0.073242 0.150172 0.000000 
0.024414 0.166022 0.000000 
0.024414 0.181881 0.000000 
0.073242 0.166022 0.000000 
0.073242 0.181881 0.000000 
0.024414 0.197749 0.000000 
0.024414 0.213625 0.000000 
0.073242 0.197749 0.000000 
0.073242 0.213625 0.000000 
0.024414 0.229508 0.000000 
0.024414 0.245401 0.000000 
0.073242 0.229508 0.000000 
0.073242 0.245401 0.000000 
0.024414 0.261301 0.000000 
0.024414 0.277210 0.000000 
0.073242 0.261301 0.000000 
0.073242 0.277210 0.000000 
0.024414 0.293128 0.000000 
0.024414 0.309054 0.000000 
0.073242 0.293128 0.000000 
0.073242 0.309054 0.000000 
0.024414 0.324987 0.000000 
0.024414 0.340929 0.000000 
0.073242 0.324987 0.000000 
0.073242 0.340929 0.000000 
0.024414 0.356880 0.000000 
0.024414 0.372840 0.000000 
0.073242 0.356880 0.000000 
0.073242 0.372840 0.000000 
0.024414 0.388808 0.000000 
0.024414 0.404784 0.000000 
0.073242 0.388808 0.000000 
0.073242 0.404784 0.000000 
0.024414 0.420768 0.000000 
0.024414 0.436762 0.000000 
0.073242 0.420768 0.000000 
0.073242 0.436762 0.000000 
0.024414 0.452762 0.000000 
0.024414 0.468773 0.000000 
0.073242 0.452762 0.000000 
0.073242 0.468773 0.000000 
0.024414 0.484791 0.000000 
0.024414 0.500819 0.000000 
0.073242 0.484791 0.000000 
0.073242 0.500819 0.000000 
0.024414 0.516854 0.000000 
0.024414 0.532898 0.000000 
0.073242 0.516854 0.000000 
0.073242 0.532898 0.000000 
0.024414 0.548950 0.000000 
0.024414 0.565011 0.000000 
0.073242 0.548950 0.000000 
0.073242 0.565011 0.000000 
0.024414 0.581081 0.000000 
0.024414 0.597159 0.000000 
0.073242 0.581081 0.000000 
0.073242 0.597159 0.000000 
0.024414 0.613246 0.000000 
0.024414 0.629341 0.000000 
0.073242 0.613246 0.000000 
0.073242 0.629341 0.000000 
0.024414 0.645445 0.000000 
0.024414 0.661558 0.000000 
0.073242 0.645445 0.000000 
0.073242 0.661558 0.000000 
0.024414 0.677679 0.000000 
0.024414 0.693809 0.000000 
0.073242 0.677679 0.000000 
0.073242 0.693809 0.000000 
0.024414 0.709948 0.000000 
0.024414 0.726095 0.000000 
0.073242 0.709948 0.000000 
0.073242 0.726095 0.000000 
0.024414 0.742251 0.000000 
0.024414 0.758415 0.000000 
0.073242 0.742251 0.000000 
0.073242 0.758415 0.000000 
0.024414 0.774588 0.000000 
0.024414 0.790771 0.000000 
0.073242 0.774588 0.000000 
0.073242 0.790771 0.000000 
0.024414 0.806961 0.000000 
0.024414 0.823161 0.000000 
0.073242 0.806961 0.000000 
0.073242 0.823161 0.000000 
0.024414 0.839368 0.000000 
0.024414 0.855585 0.000000 
0.073242 0.839368 0.000000 
0.073242 0.855585 0.000000 
0.024414 0.871811 0.000000 
0.024414 0.888046 0.000000 
0.073242 0.871811 0.000000 
0.073242 0.888046 0.000000 
0.024414 0.904288 0.000000 
0.024414 0.920540 0.000000 
0.073242 0.904288 0.000000 
0.073242 0.920540 0.000000 
0.024414 0.936801 0.000000 
0.024414 0.953070 0.000000 
0.073242 0.936801 0.000000 
0.073242 0.953070 0.000000 
0.024414 0.969349 0.000000 
0.024414 0.985636 0.000000 
0.073242 0.969349 0.000000 
0.073242 0.985636 0.000000 
0.024414 1.001933 0.000000 
0.024414 1.018237 0.000000 
0.073242 1.001933 0.000000 
0.073242 1.018237 0.000000 
0.024414 1.034552 0.000000 
0.024414 1.050874 0.000000 
0.073242 1.034552 0.000000 
0.073242 1.050874 0.000000 
0.024414 1.067206 0.000000 
0.024414 1.083546 0.000000 
0.073242 1.067206 0.000000 
0.073242 1.083546 0.000000 
0.024414 1.099895 0.000000 
0.024414 1.116253 0.000000 
0.073242 1.099895 0.000000 
0.073242 1.116253 0.000000 
0.024414 1.132620 0.000000 
0.024414 1.148997 0.000000 
0.073242 1.132620 0.000000 
0.073242 1.148997 0.000000 
0.024414 1.165383 0.000000 
0.024414 1.181777 0.000000 
0.073242 1.165383 0.000000 
0.073242 1.181777 0.000000 
0.024414 1.198180 0.000000 
0.024414 1.214592 0.000000 
0.073242 1.198180 0.000000 
0.073242 1.214592 0.000000 
0.024414 1.231014 0.000000 
0.024414 1.247444 0.000000 
0.073242 1.231014 0.000000 
0.073242 1.247444 0.000000 
0.024414 1.263883 0.000000 
0.024414 1.280332 0.000000 
0.073242 1.263883 0.000000 
0.073242 1.280332 0.000000 
0.024414 1.296789 0.000000 
0.024414 1.313256 0.000000 
0.073242 1.296789 0.000000 
0.073242 1.313256 0.000000 
0.024414 1.329732 0.000000 
0.024414 1.346217 0.000000 
0.073242 1.329732 0.000000 
0.073242 1.346217 0.000000 
0.024414 1.362711 0.000000 
0.024414 1.379214 0.000000 
0.073242 1.362711 0.000000 
0.073242 1.379214 0.000000 
0.024414 1.395726 0.000000 
0.024414 1.412248 0.000000 
0.073242 1.395726 0.000000 
0.073242 1.412248 0.000000 
0.024414 1.428779 0.000000 
0.024414 1.445318 0.000000 
0.073242 1.428779 0.000000 
0.073242 1.445318 0.000000 
0.024414 1.461868 0.000000 
0.024414 1.478426 0.000000 
0.073242 1.461868 0.000000 
0.073242 1.478426 0.000000 
0.024414 1.494994 0.000000 
0.024414 1.511570 0.000000 
0.073242 1.494994 0.000000 
0.073242 1.511570 0.000000 
0.024414 1.528157 0.000000 
0.024414 1.544752 0.000000 
0.073242 1.528157 0.000000 
0.073242 1.544752 0.000000 
0.024414 1.561356 0.000000 
0.024414 1.577971 0.000000 
0.073242 1.561356 0.000000 
0.073242 1.577971 0.000000 
0.024414 1.594593 0.000000 
0.024414 1.611226 0.000000 
0.073242 1.594593 0.000000 
0.073242 1.611226 0.000000 
0.024414 1.627868 0.000000 
0.024414 1.644520 0.000000 
0.073242 1.627868 0.000000 
0.073242 1.644520 0.000000 
0.024414 1.661180 0.000000 
0.024414 1.677849 0.000000 
0.073242 1.661180 0.000000 
0.073242 1.677849 0.000000 
0.024414 1.694529 0.000000 
0.024414 1.711217 0.000000 
0.073242 1.694529 0.000000 
0.073242 1.711217 0.000000 
0.024414 1.727915 0.000000 
0.024414 1.744622 0.000000 
0.073242 1.727915 0.000000 
0.073242 1.744622 0.000000 
0.024414 1.761340 0.000000 
0.024414 1.778066 0.000000 
0.073242 1.761340 0.000000 
0.073242 1.778066 0.000000 
0.024414 1.794801 0.000000 
0.024414 1.811546 0.000000 
0.073242 1.794801 0.000000 
0.073242 1.811546 0.000000 
0.024414 1.828301 0.000000 
0.024414 1.845065 0.000000 
0.073242 1.828301 0.000000 
0.073242 1.845065 0.000000 
0.024414 1.861839 0.000000 
0.024414 1.878622 0.000000 
0.073242 1.861839 0.000000 
0.073242 1.878622 0.000000 
0.024414 1.895415 0.000000 
0.024414 1.912217 0.000000 
0.073242 1.895415 0.000000 
0.073242 1.912217 0.000000 
0.024414 1.929031 0.000000 
0.024414 1.945852 0.000000 
0.073242 1.929031 0.000000 
0.073242 1.945852 0.000000 
0.024414 1.962683 0.000000 
0.024414 1.979524 0.000000 
0.073242 1.962683 0.000000 
0.073242 1.979524 0.000000 
0.024414 1.996375 0.000000 
0.024414 2.013235 0.000000 
0.073242 1.996375 0.000000 
0.073242 2.013235 0.000000 
0.024414 2.030103 0.000000 
0.024414 2.046983 0.000000 
0.073242 2.030103 0.000000 
0.073242 2.046983 0.000000 
0.024414 2.063871 0.000000 
0.024414 2.080770 0.000000 
0.073242 2.063871 0.000000 
0.073242 2.080770 0.000000 
0.024414 2.097678 0.000000 
0.024414 2.114597 0.000000 
0.073242 2.097678 0.000000 
0.073242 2.114597 0.000000 
0.024414 2.131525 0.000000 
0.024414 2.148462 0.000000 
0.073242 2.131525 0.000000 
0.073242 2.148462 0.000000 
0.024414 2.165409 0.000000 
0.024414 2.182367 0.000000 
0.073242 2.165409 0.000000 
0.073242 2.182367 0.000000 
0.024414 2.199334 0.000000 
0.024414 2.216311 0.000000 
0.073242 2.199334 0.000000 
0.073242 2.216311 0.000000 
0.024414 2.233298 0.000000 
0.024414 2.250294 0.000000 
0.073242 2.233298 0.000000 
0.073242 2.250294 0.000000 
0.024414 2.267300 0.000000 
0.024414 2.284316 0.000000 
0.073242 2.267300 0.000000 
0.073242 2.284316 0.000000 
0.024414 2.301342 0.000000 
0.024414 2.318379 0.000000 
0.073242 2.301342 0.000000 
0.073242 2.318379 0.000000 
0.024414 2.335424 0.000000 
0.024414 2.352478 0.000000 
0.073242 2.335424 0.000000 
0.073242 2.352478 0.000000 
0.024414 2.369545 0.000000 
0.024414 2.386619 0.000000 
0.073242 2.369545 0.000000 
0.073242 2.386619 0.000000 
0.024414 2.403705 0.000000 
0.024414 2.420801 0.000000 
0.073242 2.403705 0.000000 
0.073242 2.420801 0.000000 
0.024414 2.437907 0.000000 
0.024414 2.455024 0.000000 
0.073242 2.437907 0.000000 
0.073242 2.455024 0.000000 
0.024414 2.472149 0.000000 
0.024414 2.489284 0.000000 
0.073242 2.472149 0.000000 
0.073242 2.489284 0.000000 
0.024414 2.506429 0.000000 
0.024414 2.523585 0.000000 
0.073242 2.506429 0.000000 
0.073242 2.523585 0.000000 
0.024414 2.540750 0.000000 
0.024414 2.557926 0.000000 
0.073242 2.540750 0.000000 
0.073242 2.557926 0.000000 
0.024414 2.575113 0.000000 
0.024414 2.592308 0.000000 
0.073242 2.575113 0.000000 
0.073242 2.592308 0.000000 
0.024414 2.609514 0.000000 
0.024414 2.626730 0.000000 
0.073242 2.609514 0.000000 
0.073242 2.626730 0.000000 
0.024414 2.643957 0.000000 
0.024414 2.661193 0.000000 
0.073242 2.643957 0.000000 
0.073242 2.661193 0.000000 
0.024414 2.678441 0.000000 
0.024414 2.695697 0.000000 
0.073242 2.678441 0.000000 
0.073242 2.695697 0.000000 
0.024414 2.712965 0.000000 
0.024414 2.730243 0.000000 
0.073242 2.712965 0.000000 
0.073242 2.730243 0.000000 
0.024414 2.747530 0.000000 
0.024414 2.764828 0.000000 
0.073242 2.747530 0.000000 
0.073242 2.764828 0.000000 
0.024414 2.782137 0.000000 
0.024414 2.799456 0.000000 
0.073242 2.782137 0.000000 
0.073242 2.799456 0.000000 
0.024414 2.816786 0.000000 
0.024414 2.834125 0.000000 
0.073242 2.816786 0.000000 
0.073242 2.834125 0.000000 
0.024414 2.851475 0.000000 
0.024414 2.868835 0.000000 
0.073242 2.851475 0.000000 
0.073242 2.868835 0.000000 
0.024414 2.886203 0.000000 
0.024414 2.903584 0.000000 
0.073242 2.886203 0.000000 
0.073242 2.903584 0.000000 
[...]
POINT_DATA 2048
SCALARS sigma_xx FLOAT 1
LOOKUP_TABLE default
0.000000
-0.000000
=======
POINTS 288 double
0.520833 0.175870 0.000000 
0.520833 0.527610 0.000000 
0.520833 0.879349 0.000000 
0.520833 1.231089 0.000000 
0.520833 1.582829 0.000000 
0.520833 1.934568 0.000000 
1.562500 0.175870 0.000000 
1.562500 0.527610 0.000000 
1.562500 0.879349 0.000000 
1.562500 1.231089 0.000000 
1.562500 1.582829 0.000000 
1.562500 1.934568 0.000000 
2.604167 0.175870 0.000000 
2.604167 0.527610 0.000000 
2.604167 0.879349 0.000000 
2.604167 1.231089 0.000000 
2.604167 1.582829 0.000000 
2.604167 1.934568 0.000000 
3.645833 0.175870 0.000000 
3.645833 0.527610 0.000000 
3.645833 0.879349 0.000000 
3.645833 1.231089 0.000000 
3.645833 1.582829 0.000000 
3.645833 1.934568 0.000000 
4.687500 0.175870 0.000000 
4.687500 0.527610 0.000000 
4.687500 0.879349 0.000000 
4.687500 1.231089 0.000000 
4.687500 1.582829 0.000000 
4.687500 1.934568 0.000000 
5.729167 0.175870 0.000000 
5.729167 0.527610 0.000000 
5.729167 0.879349 0.000000 
5.729167 1.231089 0.000000 
5.729167 1.582829 0.000000 
5.729167 1.934568 0.000000 
0.520833 2.288567 0.000000 
0.520833 2.648564 0.000000 
0.520833 3.014175 0.000000 
0.520833 3.385126 0.000000 
0.520833 3.760989 0.000000 
0.520833 4.141059 0.000000 
1.562500 2.288567 0.000000 
1.562500 2.648564 0.000000 
1.562500 3.014175 0.000000 
1.562500 3.385126 0.000000 
1.562500 3.760989 0.000000 
1.562500 4.141059 0.000000 
2.604167 2.288567 0.000000 
2.604167 2.648564 0.000000 
2.604167 3.014175 0.000000 
2.604167 3.385126 0.000000 
2.604167 3.760989 0.000000 
2.604167 4.141059 0.000000 
3.645833 2.288567 0.000000 
3.645833 2.648564 0.000000 
3.645833 3.014175 0.000000 
3.645833 3.385126 0.000000 
3.645833 3.760989 0.000000 
3.645833 4.141059 0.000000 
4.687500 2.288567 0.000000 
4.687500 2.648564 0.000000 
4.687500 3.014175 0.000000 
4.687500 3.385126 0.000000 
4.687500 3.760989 0.000000 
4.687500 4.141059 0.000000 
5.729167 2.288567 0.000000 
5.729167 2.648564 0.000000 
5.729167 3.014175 0.000000 
5.729167 3.385126 0.000000 
5.729167 3.760989 0.000000 
5.729167 4.141059 0.000000 
0.520833 4.526984 0.000000 
0.520833 4.920636 0.000000 
0.520833 5.321924 0.000000 
0.520833 5.730792 0.000000 
0.520833 6.147103 0.000000 
0.520833 6.569078 0.000000 
1.562500 4.526984 0.000000 
1.562500 4.920636 0.000000 
1.562500 5.321924 0.000000 
1.562500 5.730792 0.000000 
1.562500 6.147103 0.000000 
1.562500 6.569078 0.000000 
2.604167 4.526984 0.000000 
2.604167 4.920636 0.000000 
2.604167 5.321924 0.000000 
2.604167 5.730792 0.000000 
2.604167 6.147103 0.000000 
2.604167 6.569078 0.000000 
3.645833 4.526984 0.000000 
3.645833 4.920636 0.000000 
3.645833 5.321924 0.000000 
3.645833 5.730792 0.000000 
3.645833 6.147103 0.000000 
3.645833 6.569078 0.000000 
4.687500 4.526984 0.000000 
4.687500 4.920636 0.000000 
4.687500 5.321924 0.000000 
4.687500 5.730792 0.000000 
4.687500 6.147103 0.000000 
4.687500 6.569078 0.000000 
5.729167 4.526984 0.000000 
5.729167 4.920636 0.000000 
5.729167 5.321924 0.000000 
5.729167 5.730792 0.000000 
5.729167 6.147103 0.000000 
5.729167 6.569078 0.000000 
0.520833 6.996484 0.000000 
0.520833 7.430140 0.000000 
0.520833 7.870594 0.000000 
0.520833 8.317787 0.000000 
0.520833 8.771628 0.000000 
0.520833 9.232054 0.000000 
1.562500 6.996484 0.000000 
1.562500 7.430140 0.000000 
1.562500 7.870594 0.000000 
1.562500 8.317787 0.000000 
1.562500 8.771628 0.000000 
1.562500 9.232054 0.000000 
2.604167 6.996484 0.000000 
2.604167 7.430140 0.000000 
2.604167 7.870594 0.000000 
2.604167 8.317787 0.000000 
2.604167 8.771628 0.000000 
2.604167 9.232054 0.000000 
3.645833 6.996484 0.000000 
3.645833 7.430140 0.000000 
3.645833 7.870594 0.000000 
3.645833 8.317787 0.000000 
3.645833 8.771628 0.000000 
3.645833 9.232054 0.000000 
4.687500 6.996484 0.000000 
4.687500 7.430140 0.000000 
4.687500 7.870594 0.000000 
4.687500 8.317787 0.000000 
4.687500 8.771628 0.000000 
4.687500 9.232054 0.000000 
5.729167 6.996484 0.000000 
5.729167 7.430140 0.000000 
5.729167 7.870594 0.000000 
5.729167 8.317787 0.000000 
5.729167 8.771628 0.000000 
5.729167 9.232054 0.000000 
0.520833 9.701105 0.000000 
0.520833 10.179877 0.000000 
0.520833 10.669626 0.000000 
0.520833 11.169597 0.000000 
0.520833 11.680703 0.000000 
0.520833 12.203148 0.000000 
1.562500 9.701105 0.000000 
1.562500 10.179877 0.000000 
1.562500 10.669626 0.000000 
1.562500 11.169597 0.000000 
1.562500 11.680703 0.000000 
1.562500 12.203148 0.000000 
2.604167 9.701105 0.000000 
2.604167 10.179877 0.000000 
2.604167 10.669626 0.000000 
2.604167 11.169597 0.000000 
2.604167 11.680703 0.000000 
2.604167 12.203148 0.000000 
3.645833 9.701105 0.000000 
3.645833 10.179877 0.000000 
3.645833 10.669626 0.000000 
3.645833 11.169597 0.000000 
3.645833 11.680703 0.000000 
3.645833 12.203148 0.000000 
4.687500 9.701105 0.000000 
4.687500 10.179877 0.000000 
4.687500 10.669626 0.000000 
4.687500 11.169597 0.000000 
4.687500 11.680703 0.000000 
4.687500 12.203148 0.000000 
5.729167 9.701105 0.000000 
5.729167 10.179877 0.000000 
5.729167 10.669626 0.000000 
5.729167 11.169597 0.000000 
5.729167 11.680703 0.000000 
5.729167 12.203148 0.000000 
0.520833 12.738453 0.000000 
0.520833 13.285131 0.000000 
0.520833 13.843610 0.000000 
0.520833 14.414235 0.000000 
0.520833 14.999484 0.000000 
0.520833 15.597738 0.000000 
1.562500 12.738453 0.000000 
1.562500 13.285131 0.000000 
1.562500 13.843610 0.000000 
1.562500 14.414235 0.000000 
1.562500 14.999484 0.000000 
1.562500 15.597738 0.000000 
2.604167 12.738453 0.000000 
2.604167 13.285131 0.000000 
2.604167 13.843610 0.000000 
2.604167 14.414235 0.000000 
2.604167 14.999484 0.000000 
2.604167 15.597738 0.000000 
3.645833 12.738453 0.000000 
3.645833 13.285131 0.000000 
3.645833 13.843610 0.000000 
3.645833 14.414235 0.000000 
3.645833 14.999484 0.000000 
3.645833 15.597738 0.000000 
4.687500 12.738453 0.000000 
4.687500 13.285131 0.000000 
4.687500 13.843610 0.000000 
4.687500 14.414235 0.000000 
4.687500 14.999484 0.000000 
4.687500 15.597738 0.000000 
5.729167 12.738453 0.000000 
5.729167 13.285131 0.000000 
5.729167 13.843610 0.000000 
5.729167 14.414235 0.000000 
5.729167 14.999484 0.000000 
5.729167 15.597738 0.000000 
0.520833 16.213842 0.000000 
0.520833 16.850475 0.000000 
0.520833 17.508393 0.000000 
0.520833 18.191855 0.000000 
0.520833 18.902142 0.000000 
0.520833 19.632995 0.000000 
1.562500 16.213842 0.000000 
1.562500 16.850475 0.000000 
1.562500 17.508393 0.000000 
1.562500 18.191855 0.000000 
1.562500 18.902142 0.000000 
1.562500 19.632995 0.000000 
2.604167 16.213842 0.000000 
2.604167 16.850475 0.000000 
2.604167 17.508393 0.000000 
2.604167 18.191855 0.000000 
2.604167 18.902142 0.000000 
2.604167 19.632995 0.000000 
3.645833 16.213842 0.000000 
3.645833 16.850475 0.000000 
3.645833 17.508393 0.000000 
3.645833 18.191855 0.000000 
3.645833 18.902142 0.000000 
3.645833 19.632995 0.000000 
4.687500 16.213842 0.000000 
4.687500 16.850475 0.000000 
4.687500 17.508393 0.000000 
4.687500 18.191855 0.000000 
4.687500 18.902142 0.000000 
4.687500 19.632995 0.000000 
5.729167 16.213842 0.000000 
5.729167 16.850475 0.000000 
5.729167 17.508393 0.000000 
5.729167 18.191855 0.000000 
5.729167 18.902142 0.000000 
5.729167 19.632995 0.000000 
0.520833 20.390476 0.000000 
0.520833 21.179450 0.000000 
0.520833 22.002497 0.000000 
0.520833 22.867598 0.000000 
0.520833 23.776731 0.000000 
0.520833 24.739357 0.000000 
1.562500 20.390476 0.000000 
1.562500 21.179450 0.000000 
1.562500 22.002497 0.000000 
1.562500 22.867598 0.000000 
1.562500 23.776731 0.000000 
1.562500 24.739357 0.000000 
2.604167 20.390476 0.000000 
2.604167 21.179450 0.000000 
2.604167 22.002497 0.000000 
2.604167 22.867598 0.000000 
2.604167 23.776731 0.000000 
2.604167 24.739357 0.000000 
3.645833 20.390476 0.000000 
3.645833 21.179450 0.000000 
3.645833 22.002497 0.000000 
3.645833 22.867598 0.000000 
3.645833 23.776731 0.000000 
3.645833 24.739357 0.000000 
4.687500 20.390476 0.000000 
4.687500 21.179450 0.000000 
4.687500 22.002497 0.000000 
4.687500 22.867598 0.000000 
4.687500 23.776731 0.000000 
4.687500 24.739357 0.000000 
5.729167 20.390476 0.000000 
5.729167 21.179450 0.000000 
5.729167 22.002497 0.000000 
5.729167 22.867598 0.000000 
5.729167 23.776731 0.000000 
5.729167 24.739357 0.000000 

POINT_DATA 288
SCALARS sigma_xx FLOAT 1
LOOKUP_TABLE default
0.000000
>>>>>>> Stashed changes
0.000000
-0.000000
-0.000000
-0.000000
<<<<<<< Updated upstream
-0.000000
-0.000000
-0.000000
-0.000000
-0.000000
-0.000000
-0.000000
0.000000
-0.000000
0.000000
-0.000000
-0.000000
-0.000000
-0.000000
-0.000000
-0.000000
-0.000000
-0.000000
-0.000000
-0.000000
-0.000000
-0.000000
-0.000000
-0.000000
-0.000000
-0.000000
-0.000000
=======
0.000000
0.000000
>>>>>>> Stashed changes
0.000000
-0.000000
-0.000000
-0.000000
<<<<<<< Updated upstream
-0.000000
-0.000000
-0.000000
-0.000000
-0.000000
-0.000000
-0.000000
-0.000000
-0.000000
0.000000
-0.000000
-0.000000
-0.000000
-0.000000
-0.000000
-0.000000
0.000000
-0.000000
=======
0.000000
0.000000
>>>>>>> Stashed changes
0.000000
-0.000000
-0.000000
-0.000000
<<<<<<< Updated upstream
-0.000000
-0.000000
-0.000000
-0.000000
-0.000000
-0.000000
-0.000000
-0.000000
-0.000000
-0.000000
-0.000000
-0.000000
-0.000000
-0.000000
-0.000000
-0.000000
-0.000000
=======
>>>>>>> Stashed changes
0.000000
0.000000
0.000000
-0.000000
-0.000000
-0.000000
<<<<<<< Updated upstream
-0.000000
-0.000000
0.000000
-0.000000
0.000000
-0.000000
-0.000000
-0.000000
=======
0.000000
0.000000
>>>>>>> Stashed changes
0.000000
-0.000000
-0.000000
-0.000000
<<<<<<< Updated upstream
-0.000000
-0.000000
-0.000000
-0.000000
-0.000000
-0.000000
-0.000000
-0.000000
-0.000000
-0.000000
-0.000000
-0.000000
-0.000000
-0.000000
-0.000000
-0.000000
-0.000000
-0.000000
-0.000000
-0.000000
-0.000000
-0.000000
-0.000000
-0.000000
-0.000000
-0.000000
-0.000000
-0.000000
-0.000000
-0.000000
-0.000000
-0.000000
-0.000000
-0.000000
-0.000000
-0.000000
-0.000000
-0.000000
-0.000000
-0.000000
-0.000000
-0.000000
-0.000000
-0.000000
-0.000000
-0.000000
-0.000000
-0.000000
-0.000000
-0.000000
-0.000000
-0.000000
-0.000000
-0.000000
-0.000000
-0.000000
-0.000000
-0.000000
-0.000000
-0.000000
-0.000000
-0.000000
-0.000000
-0.000000
-0.000000
-0.000000
0.000000
-0.000000
-0.000000
-0.000000
-0.000000
-0.000000
-0.000000
-0.000000
-0.000000
-0.000000
-0.000000
-0.000000
-0.000000
-0.000000
-0.000000
-0.000000
-0.000000
-0.000000
-0.000000
-0.000000
-0.000000
-0.000000
-0.000000
-0.000000
-0.000000
-0.000000
-0.000000
-0.000000
-0.000000
-0.000000
-0.000000
-0.000000
-0.000000
0.000000
-0.000000
0.000000
-0.000000
0.000000
-0.000000
0.000000
-0.000000
-0.000000
-0.000000
-0.000000
-0.000000
-0.000000
-0.000000
-0.000000
-0.000000
-0.000000
-0.000000
-0.000000
=======
0.000000
0.000000
0.000000
-0.000000
-0.000000
0.000000
0.000000
0.000000
0.000000
0.000000
0.000000
0.000000
-0.000000
0.000000
0.000000
0.000000
0.000000
-0.000000
-0.000000
0.000000
0.000000
0.000000
0.000000
-0.000000
-0.000000
0.000000
0.000000
0.000000
0.000000
-0.000000
-0.000000
0.000000
0.000000
0.000000
0.000000
-0.000000
-0.000000
-0.000000
0.000000
0.000000
0.000000
0.000000
-0.000000
0.000000
0.000000
0.000000
-0.000000
0.000000
>>>>>>> Stashed changes
-0.000000
-0.000000
-0.000000
-0.000000
<<<<<<< Updated upstream
=======
0.000000
>>>>>>> Stashed changes
-0.000000
-0.000000
-0.000000
-0.000000
-0.000000
<<<<<<< Updated upstream
=======
0.000000
>>>>>>> Stashed changes
-0.000000
-0.000000
-0.000000
-0.000000
-0.000000
<<<<<<< Updated upstream
-0.000000
-0.000000
-0.000000
-0.000000
-0.000000
-0.000000
-0.000000
-0.000000
-0.000000
-0.000000
-0.000000
-0.000000
-0.000000
-0.000000
-0.000000
-0.000000
-0.000000
-0.000000
-0.000000
-0.000000
-0.000000
-0.000000
-0.000000
-0.000000
-0.000000
-0.000000
-0.000000
-0.000000
-0.000000
-0.000000
-0.000000
-0.000000
-0.000000
-0.000000
-0.000000
-0.000000
-0.000000
-0.000000
-0.000000
=======
0.000000
>>>>>>> Stashed changes
-0.000000
-0.000000
-0.000000
-0.000000
-0.000000
-0.000000
-0.000000
-0.000000
-0.000000
-0.000000
-0.000000
-0.000000
-0.000000
-0.000000
-0.000000
-0.000000
-0.000000
-0.000000
-0.000000
-0.000000
-0.000000
-0.000000
-0.000000
-0.000000
-0.000000
-0.000000
-0.000000
-0.000000
-0.000000
-0.000000
-0.000000
-0.000000
-0.000000
-0.000000
-0.000000
-0.000000
-0.000000
-0.000000
-0.000000
-0.000000
-0.000000
-0.000000
-0.000000
-0.000000
-0.000000
-0.000000
-0.000000
-0.000000
-0.000000
-0.000000
-0.000000
-0.000000
-0.000000
-0.000000
0.000000
<<<<<<< Updated upstream
-0.000000
-0.000000
-0.000000
-0.000000
-0.000000
-0.000000
-0.000000
-0.000000
=======
>>>>>>> Stashed changes
0.000000
-0.000000
-0.000000
-0.000000
-0.000000
-0.000000
-0.000000
-0.000000
-0.000000
-0.000000
-0.000000
-0.000000
-0.000000
-0.000000
-0.000000
-0.000000
-0.000000
-0.000000
-0.000000
-0.000000
-0.000000
-0.000000
-0.000000
-0.000000
-0.000000
-0.000000
-0.000000
-0.000000
-0.000000
-0.000000
-0.000000
<<<<<<< Updated upstream
=======
0.000000
-0.000000
-0.000000
-0.000000
0.000000
-0.000000
-0.000000
-0.000000
-0.000000
-0.000000
-0.000000
-0.000000
-0.000000
-0.000000
-0.000000
-0.000000
-0.000000
-0.000000
-0.000000
-0.000000
-0.000000
-0.000000
-0.000000
-0.000000
-0.000000
-0.000000
-0.000000
-0.000000
-0.000000
-0.000000
-0.000000
-0.000000
-0.000000
-0.000000
-0.000000
-0.000000
-0.000000
-0.000000
-0.000000
-0.000000
-0.000000
>>>>>>> Stashed changes
-0.000000
-0.000000
-0.000000
-0.000000
-0.000000
-0.000000
-0.000000
-0.000000
-0.000000
-0.000000
-0.000000
-0.000000
-0.000000
-0.000000
-0.000000
-0.000000
<<<<<<< Updated upstream
0.000000
-0.000000
-0.000000
-0.000000
-0.000000
-0.000000
-0.000000
-0.000000
-0.000000
-0.000000
=======
>>>>>>> Stashed changes
-0.000000
-0.000000
-0.000000
-0.000000
-0.000000
<<<<<<< Updated upstream
0.000000
=======
>>>>>>> Stashed changes
-0.000000
-0.000000
-0.000000
-0.000000
-0.000000
-0.000000
-0.000000
-0.000000
-0.000000
-0.000000
-0.000000
-0.000000
-0.000000
-0.000000
-0.000000
-0.000000
-0.000000
-0.000000
-0.000000
-0.000000
-0.000000
-0.000000
-0.000000
-0.000000
-0.000000
-0.000000
-0.000000
-0.000000
-0.000000
-0.000000
-0.000000
-0.000000
-0.000000
-0.000000
-0.000000
-0.000000
-0.000000
-0.000000
<<<<<<< Updated upstream
-0.000000
-0.000000
-0.000000
-0.000000
-0.000000
-0.000000
-0.000000
-0.000000
-0.000000
-0.000000
-0.000000
-0.000000
-0.000000
-0.000000
-0.000000
-0.000000
-0.000000
-0.000000
-0.000000
-0.000000
-0.000000
-0.000000
-0.000000
-0.000000
-0.000000
-0.000000
-0.000000
-0.000000
-0.000000
-0.000000
-0.000000
-0.000000
-0.000000
-0.000000
-0.000000
-0.000000
-0.000000
-0.000000
-0.000000
-0.000000
-0.000000
-0.000000
-0.000000
0.000000
-0.000000
-0.000000
-0.000000
-0.000000
-0.000000
-0.000000
-0.000000
-0.000000
-0.000000
-0.000000
-0.000000
-0.000000
-0.000000
-0.000000
-0.000000
-0.000000
-0.000000
-0.000000
-0.000000
-0.000000
-0.000000
-0.000000
-0.000000
-0.000000
-0.000000
-0.000000
-0.000000
-0.000000
-0.000000
-0.000000
-0.000000
0.000000
-0.000000
-0.000000
-0.000000
-0.000000
-0.000000
-0.000000
-0.000000
-0.000000
-0.000000
-0.000000
-0.000000
-0.000000
-0.000000
-0.000000
-0.000000
-0.000000
-0.000000
-0.000000
-0.000000
-0.000000
-0.000000
-0.000000
-0.000000
-0.000000
-0.000000
-0.000000
-0.000000
-0.000000
-0.000000
-0.000000
-0.000000
-0.000000
-0.000000
-0.000000
-0.000000
-0.000000
-0.000000
-0.000000
-0.000000
-0.000000
-0.000000
-0.000000
-0.000000
-0.000000
-0.000000
-0.000000
-0.000000
-0.000000
-0.000000
-0.000000
-0.000000
-0.000000
-0.000000
-0.000000
-0.000000
-0.000000
-0.000000
-0.000000
-0.000000
-0.000000
-0.000000
-0.000000
-0.000000
-0.000000
-0.000000
-0.000000
-0.000000
-0.000000
-0.000000
-0.000000
-0.000000
-0.000000
-0.000000
-0.000000
-0.000000
-0.000000
-0.000000
-0.000000
-0.000000
-0.000000
-0.000000
-0.000000
-0.000000
-0.000000
-0.000000
-0.000000
-0.000000
-0.000000
-0.000000
-0.000000
-0.000000
-0.000000
-0.000000
-0.000000
-0.000000
-0.000000
-0.000000
-0.000000
-0.000000
-0.000000
-0.000000
-0.000000
-0.000000
-0.000000
-0.000000
-0.000000
-0.000000
-0.000000
-0.000000
-0.000000
-0.000000
-0.000000
-0.000000
-0.000000
-0.000000
-0.000000
-0.000000
-0.000000
-0.000000
-0.000000
-0.000000
-0.000000
-0.000000
-0.000000
-0.000000
-0.000000
-0.000000
-0.000000
-0.000000
-0.000000
-0.000000
-0.000000
-0.000000
-0.000000
-0.000000
-0.000000
-0.000000
-0.000000
-0.000000
-0.000000
-0.000000
-0.000000
-0.000000
-0.000000
-0.000000
-0.000000
-0.000000
-0.000000
-0.000000
-0.000000
-0.000000
-0.000000
-0.000000
-0.000000
-0.000000
-0.000000
-0.000000
-0.000000
-0.000000
-0.000000
-0.000000
-0.000000
-0.000000
-0.000000
-0.000000
-0.000000
-0.000000
-0.000000
-0.000000
-0.000000
-0.000000
-0.000000
-0.000000
-0.000000
-0.000000
-0.000000
-0.000000
-0.000000
-0.000000
-0.000000
-0.000000
-0.000000
-0.000000
-0.000000
-0.000000
-0.000000
-0.000000
-0.000000
-0.000000
-0.000000
-0.000000
-0.000000
-0.000000
-0.000000
-0.000000
-0.000000
-0.000000
-0.000000
-0.000000
-0.000000
-0.000000
-0.000000
-0.000000
-0.000000
-0.000000
-0.000000
-0.000000
-0.000000
-0.000000
-0.000000
-0.000000
-0.000000
-0.000000
-0.000000
-0.000000
-0.000000
-0.000000
0.000000
-0.000000
-0.000000
-0.000000
-0.000000
-0.000000
-0.000000
-0.000000
-0.000000
-0.000000
-0.000000
-0.000000
-0.000000
-0.000000
-0.000000
-0.000000
-0.000000
-0.000000
-0.000000
-0.000000
-0.000000
-0.000000
-0.000000
-0.000000
-0.000000
-0.000000
-0.000000
-0.000000
-0.000000
-0.000000
-0.000000
-0.000000
-0.000000
-0.000000
-0.000000
-0.000000
-0.000000
-0.000000
-0.000000
-0.000000
0.000000
-0.000000
-0.000000
-0.000000
-0.000000
-0.000000
-0.000000
-0.000000
-0.000000
-0.000000
-0.000000
-0.000000
-0.000000
-0.000000
-0.000000
-0.000000
-0.000000
-0.000000
-0.000000
-0.000000
-0.000000
-0.000000
-0.000000
-0.000000
-0.000000
-0.000000
-0.000000
-0.000000
-0.000000
-0.000000
-0.000000
-0.000000
-0.000000
-0.000000
-0.000000
-0.000000
-0.000000
-0.000000
-0.000000
-0.000000
-0.000000
-0.000000
-0.000000
-0.000000
-0.000000
-0.000000
-0.000000
-0.000000
-0.000000
-0.000000
-0.000000
-0.000000
-0.000000
-0.000000
-0.000000
-0.000000
-0.000000
-0.000000
-0.000000
-0.000000
-0.000000
-0.000000
-0.000000
-0.000000
-0.000000
-0.000000
-0.000000
-0.000000
-0.000000
-0.000000
-0.000000
-0.000000
-0.000000
-0.000000
-0.000000
-0.000000
-0.000000
-0.000000
-0.000000
-0.000000
-0.000000
-0.000000
-0.000000
-0.000000
-0.000000
-0.000000
-0.000000
-0.000000
-0.000000
-0.000000
-0.000000
-0.000000
-0.000000
-0.000000
-0.000000
-0.000000
-0.000000
-0.000000
-0.000000
-0.000000
-0.000000
-0.000000
-0.000000
-0.000000
-0.000000
-0.000000
-0.000000
-0.000000
-0.000000
-0.000000
-0.000000
-0.000000
-0.000000
-0.000000
-0.000000
-0.000000
-0.000000
-0.000000
-0.000000
-0.000000
-0.000000
-0.000000
-0.000000
-0.000000
-0.000000
-0.000000
-0.000000
-0.000000
-0.000000
-0.000000
-0.000000
-0.000000
-0.000000
-0.000000
-0.000000
-0.000000
-0.000000
-0.000000
-0.000000
0.000000
-0.000000
0.000000
-0.000000
-0.000000
-0.000000
-0.000000
-0.000000
-0.000000
-0.000000
-0.000000
-0.000000
-0.000000
-0.000000
-0.000000
-0.000000
-0.000000
-0.000000
-0.000000
-0.000000
-0.000000
-0.000000
-0.000000
-0.000000
-0.000000
-0.000000
-0.000000
-0.000000
-0.000000
-0.000000
-0.000000
-0.000000
-0.000000
-0.000000
-0.000000
-0.000000
-0.000000
-0.000000
-0.000000
-0.000000
-0.000000
-0.000000
-0.000000
-0.000000
-0.000000
-0.000000
-0.000000
-0.000000
-0.000000
-0.000000
-0.000000
-0.000000
-0.000000
-0.000000
-0.000000
-0.000000
-0.000000
-0.000000
-0.000000
-0.000000
-0.000000
-0.000000
-0.000000
-0.000000
-0.000000
-0.000000
-0.000000
-0.000000
-0.000000
-0.000000
-0.000000
-0.000000
-0.000000
-0.000000
-0.000000
-0.000000
-0.000000
-0.000000
-0.000000
-0.000000
-0.000000
-0.000000
-0.000000
-0.000000
-0.000000
-0.000000
-0.000000
-0.000000
-0.000000
-0.000000
-0.000000
-0.000000
-0.000000
-0.000000
-0.000000
-0.000000
-0.000000
-0.000000
-0.000000