# vtk DataFile Version 2.0
MATLAB generated vtk file, WMC
ASCII
DATASET UNSTRUCTURED_GRID
<<<<<<< Updated upstream
POINTS 2048 double
0.024414 0.007772 0.000000 
0.024414 0.023317 0.000000 
0.073242 0.007772 0.000000 
0.073242 0.023317 0.000000 
0.024414 0.038864 0.000000 
0.024414 0.054420 0.000000 
0.073242 0.038864 0.000000 
0.073242 0.054420 0.000000 
0.024414 0.069985 0.000000 
0.024414 0.085559 0.000000 
0.073242 0.069985 0.000000 
0.073242 0.085559 0.000000 
0.024414 0.101142 0.000000 
0.024414 0.116734 0.000000 
0.073242 0.101142 0.000000 
0.073242 0.116734 0.000000 
0.024414 0.132333 0.000000 
0.024414 0.147939 0.000000 
0.073242 0.132333 0.000000 
0.073242 0.147939 0.000000 
0.024414 0.163554 0.000000 
0.024414 0.179178 0.000000 
0.073242 0.163554 0.000000 
0.073242 0.179178 0.000000 
0.024414 0.194810 0.000000 
0.024414 0.210450 0.000000 
0.073242 0.194810 0.000000 
0.073242 0.210450 0.000000 
0.024414 0.226098 0.000000 
0.024414 0.241754 0.000000 
0.073242 0.226098 0.000000 
0.073242 0.241754 0.000000 
0.024414 0.257419 0.000000 
0.024414 0.273092 0.000000 
0.073242 0.257419 0.000000 
0.073242 0.273092 0.000000 
0.024414 0.288774 0.000000 
0.024414 0.304464 0.000000 
0.073242 0.288774 0.000000 
0.073242 0.304464 0.000000 
0.024414 0.320161 0.000000 
0.024414 0.335867 0.000000 
0.073242 0.320161 0.000000 
0.073242 0.335867 0.000000 
0.024414 0.351582 0.000000 
0.024414 0.367305 0.000000 
0.073242 0.351582 0.000000 
0.073242 0.367305 0.000000 
0.024414 0.383036 0.000000 
0.024414 0.398776 0.000000 
0.073242 0.383036 0.000000 
0.073242 0.398776 0.000000 
0.024414 0.414524 0.000000 
0.024414 0.430281 0.000000 
0.073242 0.414524 0.000000 
0.073242 0.430281 0.000000 
0.024414 0.446045 0.000000 
0.024414 0.461819 0.000000 
0.073242 0.446045 0.000000 
0.073242 0.461819 0.000000 
0.024414 0.477600 0.000000 
0.024414 0.493391 0.000000 
0.073242 0.477600 0.000000 
0.073242 0.493391 0.000000 
0.024414 0.509189 0.000000 
0.024414 0.524996 0.000000 
0.073242 0.509189 0.000000 
0.073242 0.524996 0.000000 
0.024414 0.540811 0.000000 
0.024414 0.556635 0.000000 
0.073242 0.540811 0.000000 
0.073242 0.556635 0.000000 
0.024414 0.572468 0.000000 
0.024414 0.588308 0.000000 
0.073242 0.572468 0.000000 
0.073242 0.588308 0.000000 
0.024414 0.604158 0.000000 
0.024414 0.620016 0.000000 
0.073242 0.604158 0.000000 
0.073242 0.620016 0.000000 
0.024414 0.635882 0.000000 
0.024414 0.651757 0.000000 
0.073242 0.635882 0.000000 
0.073242 0.651757 0.000000 
0.024414 0.667641 0.000000 
0.024414 0.683533 0.000000 
0.073242 0.667641 0.000000 
0.073242 0.683533 0.000000 
0.024414 0.699434 0.000000 
0.024414 0.715343 0.000000 
0.073242 0.699434 0.000000 
0.073242 0.715343 0.000000 
0.024414 0.731260 0.000000 
0.024414 0.747186 0.000000 
0.073242 0.731260 0.000000 
0.073242 0.747186 0.000000 
0.024414 0.763122 0.000000 
0.024414 0.779066 0.000000 
0.073242 0.763122 0.000000 
0.073242 0.779066 0.000000 
0.024414 0.795018 0.000000 
0.024414 0.810979 0.000000 
0.073242 0.795018 0.000000 
0.073242 0.810979 0.000000 
0.024414 0.826948 0.000000 
0.024414 0.842926 0.000000 
0.073242 0.826948 0.000000 
0.073242 0.842926 0.000000 
0.024414 0.858913 0.000000 
0.024414 0.874910 0.000000 
0.073242 0.858913 0.000000 
0.073242 0.874910 0.000000 
0.024414 0.890914 0.000000 
0.024414 0.906927 0.000000 
0.073242 0.890914 0.000000 
0.073242 0.906927 0.000000 
0.024414 0.922948 0.000000 
0.024414 0.938979 0.000000 
0.073242 0.922948 0.000000 
0.073242 0.938979 0.000000 
0.024414 0.955019 0.000000 
0.024414 0.971067 0.000000 
0.073242 0.955019 0.000000 
0.073242 0.971067 0.000000 
0.024414 0.987124 0.000000 
0.024414 1.003190 0.000000 
0.073242 0.987124 0.000000 
0.073242 1.003190 0.000000 
0.024414 1.019264 0.000000 
0.024414 1.035347 0.000000 
0.073242 1.019264 0.000000 
0.073242 1.035347 0.000000 
0.024414 1.051440 0.000000 
0.024414 1.067540 0.000000 
0.073242 1.051440 0.000000 
0.073242 1.067540 0.000000 
0.024414 1.083650 0.000000 
0.024414 1.099769 0.000000 
0.073242 1.083650 0.000000 
0.073242 1.099769 0.000000 
0.024414 1.115896 0.000000 
0.024414 1.132033 0.000000 
0.073242 1.115896 0.000000 
0.073242 1.132033 0.000000 
0.024414 1.148179 0.000000 
0.024414 1.164333 0.000000 
0.073242 1.148179 0.000000 
0.073242 1.164333 0.000000 
0.024414 1.180496 0.000000 
0.024414 1.196668 0.000000 
0.073242 1.180496 0.000000 
0.073242 1.196668 0.000000 
0.024414 1.212850 0.000000 
0.024414 1.229040 0.000000 
0.073242 1.212850 0.000000 
0.073242 1.229040 0.000000 
0.024414 1.245239 0.000000 
0.024414 1.261447 0.000000 
0.073242 1.245239 0.000000 
0.073242 1.261447 0.000000 
0.024414 1.277664 0.000000 
0.024414 1.293890 0.000000 
0.073242 1.277664 0.000000 
0.073242 1.293890 0.000000 
0.024414 1.310125 0.000000 
0.024414 1.326369 0.000000 
0.073242 1.310125 0.000000 
0.073242 1.326369 0.000000 
0.024414 1.342623 0.000000 
0.024414 1.358884 0.000000 
0.073242 1.342623 0.000000 
0.073242 1.358884 0.000000 
0.024414 1.375156 0.000000 
0.024414 1.391436 0.000000 
0.073242 1.375156 0.000000 
0.073242 1.391436 0.000000 
0.024414 1.407726 0.000000 
0.024414 1.424024 0.000000 
0.073242 1.407726 0.000000 
0.073242 1.424024 0.000000 
0.024414 1.440332 0.000000 
0.024414 1.456649 0.000000 
0.073242 1.440332 0.000000 
0.073242 1.456649 0.000000 
0.024414 1.472975 0.000000 
0.024414 1.489310 0.000000 
0.073242 1.472975 0.000000 
0.073242 1.489310 0.000000 
0.024414 1.505655 0.000000 
0.024414 1.522008 0.000000 
0.073242 1.505655 0.000000 
0.073242 1.522008 0.000000 
0.024414 1.538371 0.000000 
0.024414 1.554744 0.000000 
0.073242 1.538371 0.000000 
0.073242 1.554744 0.000000 
0.024414 1.571124 0.000000 
0.024414 1.587515 0.000000 
0.073242 1.571124 0.000000 
0.073242 1.587515 0.000000 
0.024414 1.603914 0.000000 
0.024414 1.620324 0.000000 
0.073242 1.603914 0.000000 
0.073242 1.620324 0.000000 
0.024414 1.636742 0.000000 
0.024414 1.653169 0.000000 
0.073242 1.636742 0.000000 
0.073242 1.653169 0.000000 
0.024414 1.669607 0.000000 
0.024414 1.686052 0.000000 
0.073242 1.669607 0.000000 
0.073242 1.686052 0.000000 
0.024414 1.702507 0.000000 
0.024414 1.718972 0.000000 
0.073242 1.702507 0.000000 
0.073242 1.718972 0.000000 
0.024414 1.735447 0.000000 
0.024414 1.751931 0.000000 
0.073242 1.735447 0.000000 
0.073242 1.751931 0.000000 
0.024414 1.768424 0.000000 
0.024414 1.784927 0.000000 
0.073242 1.768424 0.000000 
0.073242 1.784927 0.000000 
0.024414 1.801439 0.000000 
0.024414 1.817960 0.000000 
0.073242 1.801439 0.000000 
0.073242 1.817960 0.000000 
0.024414 1.834490 0.000000 
0.024414 1.851031 0.000000 
0.073242 1.834490 0.000000 
0.073242 1.851031 0.000000 
0.024414 1.867581 0.000000 
0.024414 1.884139 0.000000 
0.073242 1.867581 0.000000 
0.073242 1.884139 0.000000 
0.024414 1.900709 0.000000 
0.024414 1.917287 0.000000 
0.073242 1.900709 0.000000 
0.073242 1.917287 0.000000 
0.024414 1.933874 0.000000 
0.024414 1.950472 0.000000 
0.073242 1.933874 0.000000 
0.073242 1.950472 0.000000 
0.024414 1.967078 0.000000 
0.024414 1.983694 0.000000 
0.073242 1.967078 0.000000 
0.073242 1.983694 0.000000 
0.024414 2.000319 0.000000 
0.024414 2.016954 0.000000 
0.073242 2.000319 0.000000 
0.073242 2.016954 0.000000 
0.024414 2.033599 0.000000 
0.024414 2.050253 0.000000 
0.073242 2.033599 0.000000 
0.073242 2.050253 0.000000 
0.024414 2.066917 0.000000 
0.024414 2.083592 0.000000 
0.073242 2.066917 0.000000 
0.073242 2.083592 0.000000 
0.024414 2.100275 0.000000 
0.024414 2.116968 0.000000 
0.073242 2.100275 0.000000 
0.073242 2.116968 0.000000 
0.024414 2.133671 0.000000 
0.024414 2.150384 0.000000 
0.073242 2.133671 0.000000 
0.073242 2.150384 0.000000 
0.024414 2.167106 0.000000 
0.024414 2.183838 0.000000 
0.073242 2.167106 0.000000 
0.073242 2.183838 0.000000 
0.024414 2.200580 0.000000 
0.024414 2.217331 0.000000 
0.073242 2.200580 0.000000 
0.073242 2.217331 0.000000 
0.024414 2.234093 0.000000 
0.024414 2.250865 0.000000 
0.073242 2.234093 0.000000 
0.073242 2.250865 0.000000 
0.024414 2.267645 0.000000 
0.024414 2.284437 0.000000 
0.073242 2.267645 0.000000 
0.073242 2.284437 0.000000 
0.024414 2.301237 0.000000 
0.024414 2.318046 0.000000 
0.073242 2.301237 0.000000 
0.073242 2.318046 0.000000 
0.024414 2.334867 0.000000 
0.024414 2.351696 0.000000 
0.073242 2.334867 0.000000 
0.073242 2.351696 0.000000 
0.024414 2.368536 0.000000 
0.024414 2.385385 0.000000 
0.073242 2.368536 0.000000 
0.073242 2.385385 0.000000 
0.024414 2.402245 0.000000 
0.024414 2.419116 0.000000 
0.073242 2.402245 0.000000 
0.073242 2.419116 0.000000 
0.024414 2.435995 0.000000 
0.024414 2.452885 0.000000 
0.073242 2.435995 0.000000 
0.073242 2.452885 0.000000 
0.024414 2.469784 0.000000 
0.024414 2.486694 0.000000 
0.073242 2.469784 0.000000 
0.073242 2.486694 0.000000 
0.024414 2.503613 0.000000 
0.024414 2.520543 0.000000 
0.073242 2.503613 0.000000 
0.073242 2.520543 0.000000 
0.024414 2.537483 0.000000 
0.024414 2.554432 0.000000 
0.073242 2.537483 0.000000 
0.073242 2.554432 0.000000 
0.024414 2.571392 0.000000 
0.024414 2.588362 0.000000 
0.073242 2.571392 0.000000 
0.073242 2.588362 0.000000 
0.024414 2.605342 0.000000 
0.024414 2.622331 0.000000 
0.073242 2.605342 0.000000 
0.073242 2.622331 0.000000 
0.024414 2.639332 0.000000 
0.024414 2.656341 0.000000 
0.073242 2.639332 0.000000 
0.073242 2.656341 0.000000 
0.024414 2.673362 0.000000 
0.024414 2.690393 0.000000 
0.073242 2.673362 0.000000 
0.073242 2.690393 0.000000 
0.024414 2.707432 0.000000 
0.024414 2.724482 0.000000 
0.073242 2.707432 0.000000 
0.073242 2.724482 0.000000 
0.024414 2.741544 0.000000 
0.024414 2.758615 0.000000 
0.073242 2.741544 0.000000 
0.073242 2.758615 0.000000 
0.024414 2.775698 0.000000 
0.024414 2.792789 0.000000 
0.073242 2.775698 0.000000 
0.073242 2.792789 0.000000 
0.024414 2.809892 0.000000 
0.024414 2.827005 0.000000 
0.073242 2.809892 0.000000 
0.073242 2.827005 0.000000 
0.024414 2.844126 0.000000 
0.024414 2.861259 0.000000 
0.073242 2.844126 0.000000 
0.073242 2.861259 0.000000 
[...]
POINT_DATA 2048
SCALARS sigma_xx FLOAT 1
LOOKUP_TABLE default
0.000000
-0.000000
0.000000
-0.000000
-0.000000
-0.000000
-0.000000
-0.000000
-0.000000
-0.000000
-0.000000
-0.000000
-0.000000
-0.000000
-0.000000
-0.000000
=======
POINTS 288 double
0.520833 0.173352 0.000000 
0.520833 0.520055 0.000000 
0.520833 0.866759 0.000000 
0.520833 1.213462 0.000000 
0.520833 1.560165 0.000000 
0.520833 1.906869 0.000000 
1.562500 0.173352 0.000000 
1.562500 0.520055 0.000000 
1.562500 0.866759 0.000000 
1.562500 1.213462 0.000000 
1.562500 1.560165 0.000000 
1.562500 1.906869 0.000000 
2.604167 0.173352 0.000000 
2.604167 0.520055 0.000000 
2.604167 0.866759 0.000000 
2.604167 1.213462 0.000000 
2.604167 1.560165 0.000000 
2.604167 1.906869 0.000000 
3.645833 0.173352 0.000000 
3.645833 0.520055 0.000000 
3.645833 0.866759 0.000000 
3.645833 1.213462 0.000000 
3.645833 1.560165 0.000000 
3.645833 1.906869 0.000000 
4.687500 0.173352 0.000000 
4.687500 0.520055 0.000000 
4.687500 0.866759 0.000000 
4.687500 1.213462 0.000000 
4.687500 1.560165 0.000000 
4.687500 1.906869 0.000000 
5.729167 0.173352 0.000000 
5.729167 0.520055 0.000000 
5.729167 0.866759 0.000000 
5.729167 1.213462 0.000000 
5.729167 1.560165 0.000000 
5.729167 1.906869 0.000000 
0.520833 2.255798 0.000000 
0.520833 2.610641 0.000000 
0.520833 2.971017 0.000000 
0.520833 3.336657 0.000000 
0.520833 3.707138 0.000000 
0.520833 4.081766 0.000000 
1.562500 2.255798 0.000000 
1.562500 2.610641 0.000000 
1.562500 2.971017 0.000000 
1.562500 3.336657 0.000000 
1.562500 3.707138 0.000000 
1.562500 4.081766 0.000000 
2.604167 2.255798 0.000000 
2.604167 2.610641 0.000000 
2.604167 2.971017 0.000000 
2.604167 3.336657 0.000000 
2.604167 3.707138 0.000000 
2.604167 4.081766 0.000000 
3.645833 2.255798 0.000000 
3.645833 2.610641 0.000000 
3.645833 2.971017 0.000000 
3.645833 3.336657 0.000000 
3.645833 3.707138 0.000000 
3.645833 4.081766 0.000000 
4.687500 2.255798 0.000000 
4.687500 2.610641 0.000000 
4.687500 2.971017 0.000000 
4.687500 3.336657 0.000000 
4.687500 3.707138 0.000000 
4.687500 4.081766 0.000000 
5.729167 2.255798 0.000000 
5.729167 2.610641 0.000000 
5.729167 2.971017 0.000000 
5.729167 3.336657 0.000000 
5.729167 3.707138 0.000000 
5.729167 4.081766 0.000000 
0.520833 4.462166 0.000000 
0.520833 4.850181 0.000000 
0.520833 5.245723 0.000000 
0.520833 5.648737 0.000000 
0.520833 6.059114 0.000000 
0.520833 6.475651 0.000000 
1.562500 4.462166 0.000000 
1.562500 4.850181 0.000000 
1.562500 5.245723 0.000000 
1.562500 5.648737 0.000000 
1.562500 6.059114 0.000000 
1.562500 6.475651 0.000000 
2.604167 4.462166 0.000000 
2.604167 4.850181 0.000000 
2.604167 5.245723 0.000000 
2.604167 5.648737 0.000000 
2.604167 6.059114 0.000000 
2.604167 6.475651 0.000000 
3.645833 4.462166 0.000000 
3.645833 4.850181 0.000000 
3.645833 5.245723 0.000000 
3.645833 5.648737 0.000000 
3.645833 6.059114 0.000000 
3.645833 6.475651 0.000000 
4.687500 4.462166 0.000000 
4.687500 4.850181 0.000000 
4.687500 5.245723 0.000000 
4.687500 5.648737 0.000000 
4.687500 6.059114 0.000000 
4.687500 6.475651 0.000000 
5.729167 4.462166 0.000000 
5.729167 4.850181 0.000000 
5.729167 5.245723 0.000000 
5.729167 5.648737 0.000000 
5.729167 6.059114 0.000000 
5.729167 6.475651 0.000000 
0.520833 6.897784 0.000000 
0.520833 7.326089 0.000000 
0.520833 7.761108 0.000000 
0.520833 8.202784 0.000000 
0.520833 8.651025 0.000000 
0.520833 9.105769 0.000000 
1.562500 6.897784 0.000000 
1.562500 7.326089 0.000000 
1.562500 7.761108 0.000000 
1.562500 8.202784 0.000000 
1.562500 8.651025 0.000000 
1.562500 9.105769 0.000000 
2.604167 6.897784 0.000000 
2.604167 7.326089 0.000000 
2.604167 7.761108 0.000000 
2.604167 8.202784 0.000000 
2.604167 8.651025 0.000000 
2.604167 9.105769 0.000000 
3.645833 6.897784 0.000000 
3.645833 7.326089 0.000000 
3.645833 7.761108 0.000000 
3.645833 8.202784 0.000000 
3.645833 8.651025 0.000000 
3.645833 9.105769 0.000000 
4.687500 6.897784 0.000000 
4.687500 7.326089 0.000000 
4.687500 7.761108 0.000000 
4.687500 8.202784 0.000000 
4.687500 8.651025 0.000000 
4.687500 9.105769 0.000000 
5.729167 6.897784 0.000000 
5.729167 7.326089 0.000000 
5.729167 7.761108 0.000000 
5.729167 8.202784 0.000000 
5.729167 8.651025 0.000000 
5.729167 9.105769 0.000000 
0.520833 9.569033 0.000000 
0.520833 10.041897 0.000000 
0.520833 10.525604 0.000000 
0.520833 11.019406 0.000000 
0.520833 11.524205 0.000000 
0.520833 12.040204 0.000000 
1.562500 9.569033 0.000000 
1.562500 10.041897 0.000000 
1.562500 10.525604 0.000000 
1.562500 11.019406 0.000000 
1.562500 11.524205 0.000000 
1.562500 12.040204 0.000000 
2.604167 9.569033 0.000000 
2.604167 10.041897 0.000000 
2.604167 10.525604 0.000000 
2.604167 11.019406 0.000000 
2.604167 11.524205 0.000000 
2.604167 12.040204 0.000000 
3.645833 9.569033 0.000000 
3.645833 10.041897 0.000000 
3.645833 10.525604 0.000000 
3.645833 11.019406 0.000000 
3.645833 11.524205 0.000000 
3.645833 12.040204 0.000000 
4.687500 9.569033 0.000000 
4.687500 10.041897 0.000000 
4.687500 10.525604 0.000000 
4.687500 11.019406 0.000000 
4.687500 11.524205 0.000000 
4.687500 12.040204 0.000000 
5.729167 9.569033 0.000000 
5.729167 10.041897 0.000000 
5.729167 10.525604 0.000000 
5.729167 11.019406 0.000000 
5.729167 11.524205 0.000000 
5.729167 12.040204 0.000000 
0.520833 12.569326 0.000000 
0.520833 13.110220 0.000000 
0.520833 13.662793 0.000000 
0.520833 14.227384 0.000000 
0.520833 14.806443 0.000000 
0.520833 15.398370 0.000000 
1.562500 12.569326 0.000000 
1.562500 13.110220 0.000000 
1.562500 13.662793 0.000000 
1.562500 14.227384 0.000000 
1.562500 14.806443 0.000000 
1.562500 15.398370 0.000000 
2.604167 12.569326 0.000000 
2.604167 13.110220 0.000000 
2.604167 13.662793 0.000000 
2.604167 14.227384 0.000000 
2.604167 14.806443 0.000000 
2.604167 15.398370 0.000000 
3.645833 12.569326 0.000000 
3.645833 13.110220 0.000000 
3.645833 13.662793 0.000000 
3.645833 14.227384 0.000000 
3.645833 14.806443 0.000000 
3.645833 15.398370 0.000000 
4.687500 12.569326 0.000000 
4.687500 13.110220 0.000000 
4.687500 13.662793 0.000000 
4.687500 14.227384 0.000000 
4.687500 14.806443 0.000000 
4.687500 15.398370 0.000000 
5.729167 12.569326 0.000000 
5.729167 13.110220 0.000000 
5.729167 13.662793 0.000000 
5.729167 14.227384 0.000000 
5.729167 14.806443 0.000000 
5.729167 15.398370 0.000000 
0.520833 16.007958 0.000000 
0.520833 16.637857 0.000000 
0.520833 17.288818 0.000000 
0.520833 17.965052 0.000000 
0.520833 18.668770 0.000000 
0.520833 19.395514 0.000000 
1.562500 16.007958 0.000000 
1.562500 16.637857 0.000000 
1.562500 17.288818 0.000000 
1.562500 17.965052 0.000000 
1.562500 18.668770 0.000000 
1.562500 19.395514 0.000000 
2.604167 16.007958 0.000000 
2.604167 16.637857 0.000000 
2.604167 17.288818 0.000000 
2.604167 17.965052 0.000000 
2.604167 18.668770 0.000000 
2.604167 19.395514 0.000000 
3.645833 16.007958 0.000000 
3.645833 16.637857 0.000000 
3.645833 17.288818 0.000000 
3.645833 17.965052 0.000000 
3.645833 18.668770 0.000000 
3.645833 19.395514 0.000000 
4.687500 16.007958 0.000000 
4.687500 16.637857 0.000000 
4.687500 17.288818 0.000000 
4.687500 17.965052 0.000000 
4.687500 18.668770 0.000000 
4.687500 19.395514 0.000000 
5.729167 16.007958 0.000000 
5.729167 16.637857 0.000000 
5.729167 17.288818 0.000000 
5.729167 17.965052 0.000000 
5.729167 18.668770 0.000000 
5.729167 19.395514 0.000000 
0.520833 20.148897 0.000000 
0.520833 20.933604 0.000000 
0.520833 21.752201 0.000000 
0.520833 22.612622 0.000000 
0.520833 23.516838 0.000000 
0.520833 24.476095 0.000000 
1.562500 20.148897 0.000000 
1.562500 20.933604 0.000000 
1.562500 21.752201 0.000000 
1.562500 22.612622 0.000000 
1.562500 23.516838 0.000000 
1.562500 24.476095 0.000000 
2.604167 20.148897 0.000000 
2.604167 20.933604 0.000000 
2.604167 21.752201 0.000000 
2.604167 22.612622 0.000000 
2.604167 23.516838 0.000000 
2.604167 24.476095 0.000000 
3.645833 20.148897 0.000000 
3.645833 20.933604 0.000000 
3.645833 21.752201 0.000000 
3.645833 22.612622 0.000000 
3.645833 23.516838 0.000000 
3.645833 24.476095 0.000000 
4.687500 20.148897 0.000000 
4.687500 20.933604 0.000000 
4.687500 21.752201 0.000000 
4.687500 22.612622 0.000000 
4.687500 23.516838 0.000000 
4.687500 24.476095 0.000000 
5.729167 20.148897 0.000000 
5.729167 20.933604 0.000000 
5.729167 21.752201 0.000000 
5.729167 22.612622 0.000000 
5.729167 23.516838 0.000000 
5.729167 24.476095 0.000000 

POINT_DATA 288
SCALARS sigma_xx FLOAT 1
LOOKUP_TABLE default
0.000000
>>>>>>> Stashed changes
0.000000
0.000000
0.000000
0.000000
-0.000000
<<<<<<< Updated upstream
-0.000000
-0.000000
-0.000000
-0.000000
-0.000000
-0.000000
-0.000000
-0.000000
-0.000000
-0.000000
-0.000000
-0.000000
=======
0.000000
0.000000
>>>>>>> Stashed changes
0.000000
-0.000000
-0.000000
-0.000000
<<<<<<< Updated upstream
-0.000000
-0.000000
-0.000000
-0.000000
-0.000000
-0.000000
-0.000000
-0.000000
-0.000000
-0.000000
0.000000
0.000000
0.000000
0.000000
0.000000
-0.000000
-0.000000
-0.000000
-0.000000
-0.000000
-0.000000
-0.000000
-0.000000
-0.000000
-0.000000
-0.000000
-0.000000
-0.000000
-0.000000
-0.000000
-0.000000
-0.000000
-0.000000
-0.000000
-0.000000
-0.000000
-0.000000
-0.000000
-0.000000
-0.000000
-0.000000
-0.000000
-0.000000
-0.000000
-0.000000
-0.000000
-0.000000
-0.000000
=======
0.000000
0.000000
0.000000
>>>>>>> Stashed changes
-0.000000
-0.000000
-0.000000
0.000000
<<<<<<< Updated upstream
-0.000000
-0.000000
-0.000000
-0.000000
-0.000000
-0.000000
-0.000000
-0.000000
-0.000000
-0.000000
-0.000000
-0.000000
-0.000000
-0.000000
-0.000000
-0.000000
-0.000000
-0.000000
-0.000000
-0.000000
-0.000000
-0.000000
-0.000000
-0.000000
-0.000000
-0.000000
-0.000000
-0.000000
-0.000000
-0.000000
-0.000000
-0.000000
-0.000000
-0.000000
-0.000000
-0.000000
-0.000000
-0.000000
-0.000000
-0.000000
-0.000000
-0.000000
-0.000000
-0.000000
-0.000000
-0.000000
-0.000000
-0.000000
-0.000000
-0.000000
-0.000000
-0.000000
-0.000000
-0.000000
-0.000000
-0.000000
-0.000000
-0.000000
-0.000000
-0.000000
-0.000000
-0.000000
-0.000000
-0.000000
-0.000000
-0.000000
=======
0.000000
>>>>>>> Stashed changes
0.000000
-0.000000
-0.000000
-0.000000
<<<<<<< Updated upstream
-0.000000
-0.000000
-0.000000
-0.000000
=======
0.000000
0.000000
0.000000
-0.000000
-0.000000
-0.000000
0.000000
0.000000
0.000000
-0.000000
0.000000
>>>>>>> Stashed changes
-0.000000
-0.000000
-0.000000
-0.000000
-0.000000
-0.000000
<<<<<<< Updated upstream
=======
0.000000
>>>>>>> Stashed changes
-0.000000
-0.000000
-0.000000
-0.000000
<<<<<<< Updated upstream
=======
0.000000
0.000000
>>>>>>> Stashed changes
-0.000000
-0.000000
-0.000000
-0.000000
<<<<<<< Updated upstream
=======
0.000000
0.000000
>>>>>>> Stashed changes
-0.000000
-0.000000
-0.000000
-0.000000
<<<<<<< Updated upstream
=======
0.000000
0.000000
>>>>>>> Stashed changes
-0.000000
-0.000000
-0.000000
-0.000000
<<<<<<< Updated upstream
=======
0.000000
0.000000
>>>>>>> Stashed changes
-0.000000
-0.000000
-0.000000
-0.000000
-0.000000
<<<<<<< Updated upstream
=======
0.000000
>>>>>>> Stashed changes
-0.000000
-0.000000
-0.000000
-0.000000
-0.000000
-0.000000
<<<<<<< Updated upstream
=======
0.000000
0.000000
>>>>>>> Stashed changes
-0.000000
-0.000000
-0.000000
-0.000000
<<<<<<< Updated upstream
=======
0.000000
0.000000
>>>>>>> Stashed changes
-0.000000
-0.000000
-0.000000
-0.000000
<<<<<<< Updated upstream
=======
0.000000
0.000000
>>>>>>> Stashed changes
-0.000000
-0.000000
-0.000000
-0.000000
<<<<<<< Updated upstream
-0.000000
-0.000000
-0.000000
-0.000000
-0.000000
=======
0.000000
0.000000
-0.000000
0.000000
-0.000000
-0.000000
-0.000000
0.000000
-0.000000
0.000000
>>>>>>> Stashed changes
-0.000000
-0.000000
-0.000000
-0.000000
-0.000000
-0.000000
-0.000000
-0.000000
<<<<<<< Updated upstream
-0.000000
-0.000000
-0.000000
-0.000000
-0.000000
-0.000000
-0.000000
-0.000000
-0.000000
-0.000000
-0.000000
-0.000000
-0.000000
-0.000000
-0.000000
-0.000000
-0.000000
-0.000000
-0.000000
-0.000000
-0.000000
-0.000000
-0.000000
-0.000000
-0.000000
-0.000000
-0.000000
-0.000000
-0.000000
-0.000000
-0.000000
-0.000000
-0.000000
-0.000000
-0.000000
-0.000000
-0.000000
-0.000000
-0.000000
-0.000000
-0.000000
-0.000000
-0.000000
-0.000000
-0.000000
-0.000000
-0.000000
-0.000000
-0.000000
-0.000000
-0.000000
-0.000000
-0.000000
-0.000000
-0.000000
-0.000000
-0.000000
-0.000000
-0.000000
-0.000000
-0.000000
-0.000000
-0.000000
-0.000000
-0.000000
-0.000000
-0.000000
-0.000000
-0.000000
-0.000000
-0.000000
-0.000000
-0.000000
-0.000000
-0.000000
0.000000
-0.000000
-0.000000
-0.000000
0.000000
-0.000000
-0.000000
-0.000000
-0.000000
-0.000000
-0.000000
-0.000000
-0.000000
-0.000000
-0.000000
-0.000000
-0.000000
-0.000000
-0.000000
-0.000000
-0.000000
-0.000000
-0.000000
-0.000000
-0.000000
-0.000000
-0.000000
-0.000000
-0.000000
-0.000000
-0.000000
-0.000000
-0.000000
-0.000000
-0.000000
-0.000000
-0.000000
-0.000000
-0.000000
-0.000000
-0.000000
-0.000000
-0.000000
-0.000000
-0.000000
-0.000000
-0.000000
-0.000000
-0.000000
-0.000000
-0.000000
-0.000000
-0.000000
-0.000000
-0.000000
-0.000000
-0.000000
-0.000000
-0.000000
-0.000000
-0.000000
-0.000000
-0.000000
-0.000000
-0.000000
-0.000000
-0.000000
-0.000000
-0.000000
-0.000000
-0.000000
-0.000000
-0.000000
-0.000000
-0.000000
-0.000000
0.000000
-0.000000
-0.000000
-0.000000
-0.000000
-0.000000
-0.000000
-0.000000
-0.000000
-0.000000
-0.000000
-0.000000
-0.000000
-0.000000
-0.000000
-0.000000
-0.000000
-0.000000
-0.000000
-0.000000
-0.000000
-0.000000
-0.000000
-0.000000
-0.000000
-0.000000
0.000000
-0.000000
-0.000000
-0.000000
-0.000000
-0.000000
-0.000000
-0.000000
-0.000000
-0.000000
-0.000000
-0.000000
-0.000000
-0.000000
-0.000000
-0.000000
-0.000000
-0.000000
-0.000000
-0.000000
-0.000000
-0.000000
-0.000000
-0.000000
-0.000000
-0.000000
-0.000000
-0.000000
-0.000000
-0.000000
-0.000000
-0.000000
-0.000000
-0.000000
-0.000000
-0.000000
-0.000000
-0.000000
-0.000000
-0.000000
-0.000000
-0.000000
-0.000000
-0.000000
-0.000000
-0.000000
-0.000000
-0.000000
-0.000000
-0.000000
-0.000000
-0.000000
-0.000000
-0.000000
-0.000000
-0.000000
-0.000000
-0.000000
0.000000
-0.000000
0.000000
-0.000000
-0.000000
-0.000000
-0.000000
-0.000000
-0.000000
-0.000000
-0.000000
-0.000000
-0.000000
-0.000000
-0.000000
-0.000000
-0.000000
-0.000000
-0.000000
-0.000000
-0.000000
-0.000000
-0.000000
-0.000000
-0.000000
-0.000000
-0.000000
-0.000000
-0.000000
-0.000000
-0.000000
-0.000000
-0.000000
-0.000000
-0.000000
-0.000000
-0.000000
-0.000000
-0.000000
-0.000000
-0.000000
-0.000000
-0.000000
-0.000000
-0.000000
-0.000000
-0.000000
-0.000000
-0.000000
-0.000000
-0.000000
-0.000000
-0.000000
-0.000000
0.000000
-0.000000
-0.000000
-0.000000
-0.000000
-0.000000
-0.000000
-0.000000
-0.000000
-0.000000
-0.000000
-0.000000
-0.000000
-0.000000
-0.000000
-0.000000
-0.000000
-0.000000
-0.000000
-0.000000
-0.000000
-0.000000
-0.000000
-0.000000
-0.000000
-0.000000
-0.000000
-0.000000
-0.000000
-0.000000
-0.000000
-0.000000
-0.000000
-0.000000
-0.000000
-0.000000
-0.000000
-0.000000
-0.000000
-0.000000
-0.000000
-0.000000
-0.000000
-0.000000
-0.000000
-0.000000
-0.000000
-0.000000
-0.000000
-0.000000
-0.000000
-0.000000
-0.000000
-0.000000
-0.000000
-0.000000
-0.000000
-0.000000
-0.000000
-0.000000
-0.000000
-0.000000
-0.000000
-0.000000
-0.000000
-0.000000
-0.000000
-0.000000
-0.000000
-0.000000
-0.000000
-0.000000
-0.000000
-0.000000
-0.000000
-0.000000
-0.000000
-0.000000
-0.000000
-0.000000
-0.000000
-0.000000
-0.000000
-0.000000
-0.000000
-0.000000
-0.000000
-0.000000
-0.000000
-0.000000
-0.000000
-0.000000
-0.000000
-0.000000
-0.000000
-0.000000
-0.000000
-0.000000
-0.000000
-0.000000
-0.000000
-0.000000
-0.000000
-0.000000
-0.000000
-0.000000
-0.000000
-0.000000
-0.000000
-0.000000
-0.000000
-0.000000
-0.000000
-0.000000
-0.000000
-0.000000
-0.000000
-0.000000
-0.000000
-0.000000
-0.000000
-0.000000
-0.000000
-0.000000
-0.000000
-0.000000
-0.000000
-0.000000
-0.000000
-0.000000
-0.000000
-0.000000
-0.000000
-0.000000
-0.000000
-0.000000
-0.000000
-0.000000
-0.000000
-0.000000
-0.000000
-0.000000
-0.000000
-0.000000
-0.000000
-0.000000
-0.000000
-0.000000
-0.000000
-0.000000
-0.000000
-0.000000
-0.000000
-0.000000
-0.000000
-0.000000
-0.000000
-0.000000
-0.000000
-0.000000
-0.000000
-0.000000
-0.000000
-0.000000
-0.000000
-0.000000
-0.000000
-0.000000
-0.000000
-0.000000
-0.000000
-0.000000
-0.000000
-0.000000
-0.000000
-0.000000
-0.000000
-0.000000
-0.000000
-0.000000
-0.000000
-0.000000
-0.000000
-0.000000
-0.000000
-0.000000
-0.000000
-0.000000
-0.000000
-0.000000
-0.000000
-0.000000
-0.000000
-0.000000
-0.000000
-0.000000
-0.000000
-0.000000
0.000000
-0.000000
-0.000000
-0.000000
-0.000000
-0.000000
-0.000000
-0.000000
-0.000000
-0.000000
-0.000000
-0.000000
-0.000000
-0.000000
-0.000000
-0.000000
-0.000000
-0.000000
-0.000000
-0.000000
-0.000000
-0.000000
-0.000000
-0.000000
-0.000000
-0.000000
-0.000000
-0.000000
-0.000000
-0.000000
-0.000000
-0.000000
-0.000000
-0.000000
-0.000000
-0.000000
-0.000000
-0.000000
-0.000000
-0.000000
-0.000000
-0.000000
-0.000000
-0.000000
-0.000000
-0.000000
-0.000000
-0.000000
-0.000000
-0.000000
-0.000000
-0.000000
-0.000000
-0.000000
-0.000000
-0.000000
-0.000000
-0.000000
-0.000000
-0.000000
0.000000
-0.000000
-0.000000
-0.000000
-0.000000
-0.000000
-0.000000
-0.000000
-0.000000
-0.000000
-0.000000
-0.000000
-0.000000
-0.000000
-0.000000
-0.000000
-0.000000
-0.000000
-0.000000
-0.000000
-0.000000
-0.000000
-0.000000
-0.000000
-0.000000
-0.000000
-0.000000
-0.000000
-0.000000
-0.000000
-0.000000
-0.000000
-0.000000
-0.000000
-0.000000
-0.000000
-0.000000
-0.000000
-0.000000
-0.000000
-0.000000
-0.000000
-0.000000
-0.000000
-0.000000
-0.000000
-0.000000
-0.000000
-0.000000
-0.000000
-0.000000
-0.000000
-0.000000
-0.000000
-0.000000
-0.000000
-0.000000
-0.000000
-0.000000
-0.000000
-0.000000
-0.000000
-0.000000
-0.000000
-0.000000
-0.000000
-0.000000
-0.000000
-0.000000
-0.000000
-0.000000
-0.000000
-0.000000
-0.000000
-0.000000
-0.000000
-0.000000
-0.000000
-0.000000
-0.000000
-0.000000
-0.000000
-0.000000
-0.000000
-0.000000
-0.000000
-0.000000
-0.000000
-0.000000
-0.000000
-0.000000
-0.000000
-0.000000
-0.000000
-0.000000
-0.000000
-0.000000
-0.000000
-0.000000
-0.000000
-0.000000
-0.000000
-0.000000
-0.000000
-0.000000
-0.000000
-0.000000
-0.000000
-0.000000
-0.000000
-0.000000
-0.000000
-0.000000
-0.000000
-0.000000
-0.000000
-0.000000
-0.000000
-0.000000
-0.000000
-0.000000
-0.000000
-0.000000
-0.000000
-0.000000
-0.000000
-0.000000
-0.000000
-0.000000
-0.000000
-0.000000
-0.000000
-0.000000
-0.000000
-0.000000
-0.000000
-0.000000
-0.000000
-0.000000
-0.000000
-0.000000
-0.000000
-0.000000
-0.000000
-0.000000
-0.000000
-0.000000
-0.000000
-0.000000
-0.000000
-0.000000
-0.000000
-0.000000
-0.000000
-0.000000
-0.000000
-0.000000
-0.000000
-0.000000
-0.000000
-0.000000
-0.000000
-0.000000
-0.000000
-0.000000
-0.000000
-0.000000
-0.000000
-0.000000
-0.000000
-0.000000
-0.000000
-0.000000
-0.000000
-0.000000
-0.000000
-0.000000
-0.000000
-0.000000
-0.000000
-0.000000
0.000000
-0.000000
0.000000
-0.000000
-0.000000
-0.000000
-0.000000
-0.000000
-0.000000
-0.000000
-0.000000
-0.000000
-0.000000
-0.000000
-0.000000
-0.000000
-0.000000
-0.000000
-0.000000
-0.000000
-0.000000
-0.000000
-0.000000
-0.000000
-0.000000
-0.000000
-0.000000
-0.000000
-0.000000
-0.000000
-0.000000
-0.000000
-0.000000
-0.000000
-0.000000
-0.000000
-0.000000
-0.000000
-0.000000
-0.000000
-0.000000
-0.000000
-0.000000
-0.000000
-0.000000
-0.000000
-0.000000
-0.000000
-0.000000
-0.000000
-0.000000
-0.000000
-0.000000
-0.000000
-0.000000
-0.000000
-0.000000
-0.000000
0.000000
-0.000000
-0.000000
-0.000000
-0.000000
-0.000000
-0.000000
-0.000000
-0.000000
-0.000000
-0.000000
-0.000000
-0.000000
-0.000000
-0.000000
-0.000000
-0.000000
-0.000000
0.000000
-0.000000
-0.000000
-0.000000
-0.000000
-0.000000
-0.000000
-0.000000
-0.000000
-0.000000
-0.000000
-0.000000
-0.000000
-0.000000
-0.000000
-0.000000
-0.000000